(written by ASE)

4814 atoms
6 atom types

0.0      37.273950709193954  xlo xhi
0.0      37.273950709193954  ylo yhi
0.0      37.273950709193954  zlo zhi
                      0                       0                       0  xy xz yz

Atoms # atomic

     1   3               1.4484941      4.9268745599999999             -0.16118604
     2   1      1.4137786400000001      4.9170684700000002     0.83824838999999995
     3   1               1.1829246              4.03215375    -0.47154631000000002
     4   3               1.6450022     -2.7987541600000001      3.3146065600000001
     5   1     0.97004144999999997     -2.6846974299999999              4.02800125
     6   1      2.5536782699999998             -2.58078092      3.6667814399999998
     7   3      2.6661589399999999             -0.22567666      14.184130059999999
     8   1      3.6576050800000002    -0.35798855000000002      14.235044609999999
     9   1      2.2593652199999998             -1.11827115             14.36223779
    10   3             -1.39317727              1.94067243      12.184443460000001
    11   1     -1.1045200900000001      2.8890226999999999             12.28687697
    12   1             -2.31170404      1.9221150899999999             12.59114741
    13   3      4.6806650000000003     0.52417272999999998      6.7374750900000002
    14   1      4.6395317399999998      1.2927337999999999      7.3815925699999996
    15   1      4.4829258000000003     0.90722826000000001      5.8338787500000002
    16   3      6.7617327100000004      6.4455780799999998      14.447467189999999
    17   1              7.68670513      6.7450597999999999             14.39369037
    18   1      6.4282417000000001      6.8084489699999997             15.32834257
    19   3     -3.6201927999999999      8.9590824300000005      3.1423971100000001
    20   1     -3.8587803900000002      9.8151204599999993      2.6995115599999999
    21   1     -2.7031776399999998      9.0463777299999997      3.5370111799999999
    22   3     -3.6586253399999999     -1.0575550600000001      2.0903184000000001
    23   1     -4.3917720100000004    -0.78167613000000002      1.4728629900000001
    24   1     -2.9462233699999998    -0.38956334999999997      1.8407206700000001
    25   3      1.1156142099999999              5.86173331      6.5119887399999996
    26   1      1.0261411600000001      4.8723166899999999      6.3486879199999997
    27   1     0.86035048000000003      6.3385138200000002      5.6718501400000001
    28   3     0.84757722999999996      2.2559445899999999             -1.42246245
    29   1      1.5352983200000001              2.35146919     -2.1561739499999999
    30   1      1.3417797899999999      1.8798184499999999    -0.63108982999999996
    31   3             12.67782006      9.8039200900000001    -0.18948722000000001
    32   1             13.28413025      9.4095591899999995    -0.87644387999999995
    33   1             12.11721921             10.49062486    -0.61806797999999996
    34   3      5.1021514200000002     -1.4739150999999999             11.80679271
    35   1      5.8072037700000001     -2.1570495799999998      11.717557190000001
    36   1      5.2142876300000003             -1.09107957             12.72109169
    37   3              1.25963252      5.1276734700000004      2.5923543200000001
    38   1     0.43698037000000001      4.6618892499999998      2.9119499900000001
    39   1      2.0349647800000001      4.7124946200000002              3.06186304
    40   3      5.5811257999999997    -0.16691858000000001              3.03772785
    41   1      5.7848844399999999    -0.12894849999999999      2.0610806199999998
    42   1      5.1209672299999998             -1.03696386      3.2341111599999999
    43   3      1.4135051199999999      1.1152700499999999      4.7534839299999998
    44   1              1.26512665              1.93699602      5.3180292500000004
    45   1      2.3948901399999998               1.1410072      4.5357535000000002
    46   3     -1.2771809700000001      9.1341959300000006              4.51707649
    47   1    -0.87280254000000002      10.044935600000001      4.5506013300000001
    48   1    -0.54135261000000001      8.4930040200000008      4.2976261999999998
    49   3      7.0528656999999999             10.77567301      8.2538757500000006
    50   1      6.7097342199999996             11.62936112              8.62159136
    51   1      6.2835438999999997             10.12842112      8.2918311199999994
    52   3      8.6018988400000005      10.300526440000001      10.431297580000001
    53   1      9.0783052400000006      9.4605537700000006      10.193588269999999
    54   1      8.0485656900000002             10.47961877      9.6118126900000007
    55   3              7.11676997      8.6446894000000007              0.02949908
    56   1      7.9109827900000003      8.1973233699999994     0.41596761999999998
    57   1      7.1291510799999998      9.6261765399999994              0.21318018
    58   3      6.6930698900000003    -0.66022455000000002      7.8512943799999997
    59   1      6.0250922200000003    -0.20892920000000001      7.2308127999999998
    60   1      6.1223582800000003             -1.17442289      8.4499676400000006
    61   3             11.11861639      4.3799193599999997      8.0231118899999991
    62   1              10.1683419      4.0591699600000002      7.9737977400000002
    63   1      11.500732960000001      4.2158965999999998              7.10977412
    64   3      11.074106649999999      5.2468233199999998     -3.1030349899999998
    65   1      11.549076169999999      5.0211441299999997     -2.2479606599999999
    66   1             10.45840215      4.4933688299999996     -3.3498782600000001
    67   3      11.338452119999999      5.3761383499999997      1.3742655699999999
    68   1             12.05760678      5.9236036600000004              1.79597125
    69   1             10.53372208      5.9453185099999999      1.2493507100000001
    70   3      7.7690822300000004              1.39887245      9.3194839199999997
    71   1      7.5978602100000003     0.63020525999999999      8.7128048600000003
    72   1      8.6647107099999996              1.30087708      9.7553045899999997
    73   3             14.63071993      6.3494556600000003    -0.38418192000000001
    74   1      15.608723919999999      6.2240733099999996    -0.17477546999999999
    75   1             14.58725126      7.2038833899999997    -0.90479511999999995
    76   3      4.7266571099999997      4.6444765300000004              9.87234883
    77   1               5.2480262      4.3909895600000004             10.67532821
    78   1      4.6940220699999999      3.7903473999999999      9.3353529599999998
    79   3      3.5895995100000002      4.1711889099999997      3.8661579800000001
    80   1              3.70130077      4.7468809900000002              4.67656384
    81   1      4.3098786200000001      4.4807632599999998      3.2427820999999999
    82   3      1.7387629099999999      2.3452639099999999      8.7351986000000004
    83   1      1.3202973600000001              1.45440466      8.9429955999999997
    84   1               1.6969889              2.96253571      9.5245723499999997
    85   3      5.5754933600000003      1.0396531200000001             10.78130369
    86   1      5.4093806799999999     0.10237197000000001             11.07531468
    87   1      6.4668142499999997      1.0669721400000001             10.31882085
    88   3              2.27818057      4.2106070899999999      29.389875180000001
    89   1      3.1786384999999999      4.5204698900000002              29.0714507
    90   1              1.63385354      4.9764882100000003      29.294545589999998
    91   3     -3.6764293800000001              2.04272667      15.952566579999999
    92   1     -3.7359688800000002      1.9739607800000001              14.9524337
    93   1     -3.0033966599999999      2.7567314999999999      16.145050749999999
    94   3      9.0314086899999992      3.4442803799999999      14.502434989999999
    95   1      9.0341334399999997              3.61818784             13.45394181
    96   1      7.9797783600000001      3.5484349599999998      14.711907289999999
    97   3      8.1436516799999996      5.6998355299999997      26.676185669999999
    98   1              7.19669268      5.8956662700000004      26.423659900000001
    99   1      8.3261154800000003      4.7450450499999999      26.468766720000001
   100   3             -2.39555922             16.49493068             11.83404236
   101   1     -2.0436290000000001      17.248383690000001      11.270424459999999
   102   1     -2.8372777999999998             15.85138727      11.213707230000001
   103   3      5.4532282299999997      6.9435768900000001             12.11664553
   104   1      6.1442690300000002              6.57259656             11.51887661
   105   1      5.9400887100000004      7.0105855899999998      12.979003779999999
   106   3             -2.72428019             12.47261271      16.434743009999998
   107   1     -2.3845926199999998      13.362560820000001              16.1403113
   108   1     -3.2321010499999998             12.71377532      17.268542669999999
   109   3     0.81634569999999995    -0.14224616000000001      8.9248722100000002
   110   1             -0.00116577             -0.20811936      9.5071700299999993
   111   1     0.50711576000000003              -0.3377984      7.9907757999999998
   112   3             12.05852996      4.2888207500000002      5.4885916799999999
   113   1             12.62048323      5.1070129199999998      5.5961915099999997
   114   1             12.61292572      3.5813186799999999      5.0531568699999996
   115   3      6.4739981999999996     -7.0703646000000004      22.372931609999998
   116   1      6.7320506599999996     -6.4166163999999997             21.66936686
   117   1      5.5822649999999996     -6.7668380499999996      22.721429350000001
   118   3      3.3638553400000002      7.9182100899999996      15.631374080000001
   119   1              4.29403325      7.9461770600000001             15.94255641
   120   1      3.2371934900000001      8.6495420999999997      14.959560059999999
   121   3      6.0790636899999999      3.3390312500000001      11.978573580000001
   122   1      6.0119221999999999      3.4430019999999999             12.96099431
   123   1      5.7874310299999996      2.4115519700000001             11.73200473
   124   3      5.0505267299999996      2.1296060899999998             15.84088526
   125   1      5.0079478799999997      2.1158247800000001      16.828676439999999
   126   1      4.0724969800000004      2.2214148900000001             15.57667266
   127   3      6.0654673600000004      7.3238850500000003      16.861964870000001
   128   1      6.6831012300000001      6.7138557099999998      17.372016779999999
   129   1      6.5179281500000004      8.1737933300000005      16.604439769999999
   130   3      5.7538167800000002      11.794631089999999      16.773924489999999
   131   1      5.2003151299999999      11.499745819999999      17.548856900000001
   132   1      5.1275153199999997             12.26870766      16.162361900000001
   133   3      6.5802412300000004      3.7548656999999999             14.65672447
   134   1      6.4323357200000002      4.7352451499999999             14.71802673
   135   1      5.9354591000000001              3.20428596             15.24360001
   136   3      4.3861884900000003              2.26947549      8.7192220500000008
   137   1      4.6913137699999998              1.70876681      9.4917087700000007
   138   1      3.3783205199999999              2.23641421      8.7185291599999992
   139   3      9.7050433199999997      1.3837902399999999      16.561356870000001
   140   1      9.5992666599999996      1.6595642500000001             15.63092479
   141   1             10.69302272              1.37442405      16.748499760000001
   142   3             12.13195453      4.3040561400000001      17.547388260000002
   143   1      11.973761680000001      4.6842458699999998      18.465504509999999
   144   1             13.09757858      4.4916758899999998      17.320960280000001
   145   3              9.18396188              1.60894402      5.8250348699999996
   146   1      8.5443137399999998     0.99529104000000002      5.3572618700000003
   147   1      9.3736469600000003      2.3397905699999999      5.1761518799999999
   148   3      15.710396230000001      7.4345923200000001             11.51642472
   149   1      15.927378320000001      7.5452141800000003             12.50305752
   150   1             15.68804774      6.4427576499999999             11.35451174
   151   3      9.4087967700000004      6.7940348400000001              19.8210373
   152   1      9.0380548699999999      6.6582805199999999      20.742885860000001
   153   1      8.7020013499999997      6.3806852999999997              19.2393459
   154   3             12.23112993              2.99092234      9.9785786900000009
   155   1             11.79483273      3.5252207900000001      9.2461305899999999
   156   1      11.539611839999999      2.3114729399999998             10.21524747
   157   1      10.024806099999999      5.9224632100000001      16.203735030000001
   158   3      2.4576512899999998              8.69039027      18.142061139999999
   159   1              1.50002229      8.7927438099999993             18.40057535
   160   1      2.5186315399999999      8.3821241999999998             17.20413963
   161   3     -2.5050070899999999      18.658688990000002             -1.41345739
   162   1     -2.8977547000000001      19.471024480000001             -1.86671959
   163   1             -1.62165621      18.518634469999999     -1.8759532299999999
   164   3      3.2207614000000002      8.2786324400000009      4.7134079599999996
   165   1      3.2408901299999999      8.9863689499999992      5.4303493400000002
   166   1      3.8061155599999998      8.6713585000000002      4.0019175300000001
   167   3      4.1802623099999998             13.08025014      15.015840730000001
   168   1              3.99863575             14.01984697      15.346739489999999
   169   1      4.5676338999999997      13.128338660000001      14.125334199999999
   170   3             -1.21517488              8.99968243      7.3233776400000004
   171   1    -0.36182155999999999      9.5286423899999999      7.3678729699999996
   172   1             -1.40535301      8.9559187700000003      6.3462641499999997
   173   3      3.3938486600000002      10.218237609999999      6.5125628300000002
   174   1      3.9426324099999999      9.8553045000000008      7.2699771899999996
   175   1      2.4503583799999999      10.322224110000001      6.8457198200000002
   176   3      4.0709564699999996      20.085212859999999      4.7161775199999996
   177   1      4.0265591499999998      21.048603679999999      4.4479714599999998
   178   1      4.6030519600000002      19.592337189999999      4.0277196599999998
   179   3              0.89164051             10.65619673      7.2788594199999999
   180   1               1.1626429             11.16389665      8.0999202799999992
   181   1     0.52432372000000005      11.260735439999999      6.5739644300000002
   182   3             -5.24440039      17.193870400000002              6.95372287
   183   1     -5.4732118300000003      16.377917669999999      7.4944540000000002
   184   1     -4.6880148699999999      17.753857920000002      7.5724404500000002
   185   3     0.22197483000000001      8.8180035199999995     0.36045055999999998
   186   1    -0.39407560000000003      9.3414314899999997             -0.24677747
   187   1              0.15226988      9.2326293899999996               1.2366074
   188   3      12.265413540000001      16.467454879999998              -1.0429743
   189   1             12.49177691      17.207460409999999    -0.40121693000000003
   190   1             11.28413162             16.32034011    -0.94798179000000005
   191   3      8.5111435600000007      7.4965476300000002      5.3078263799999998
   192   1      9.3472086300000008      7.9857470900000003      5.0777701300000002
   193   1      8.5624300699999996              7.20757403      6.2414994100000003
   194   3              2.65874736              12.9777629              1.14341903
   195   1              3.06581014             12.08882154     0.90985634999999998
   196   1      2.1349935499999999             13.27645191     0.34708694000000001
   197   3      4.7221425699999999             14.68828411              1.58512173
   198   1      4.6340601299999999             15.40838166              0.89369873
   199   1      3.9658407000000002             14.05084364      1.4031523100000001
   200   3      4.5165562100000001      11.260831850000001      12.264139050000001
   201   1      4.2452931600000001             12.01466368             11.69537779
   202   1      4.3689452700000002      10.445585360000001             11.68841864
   203   3      2.9321092200000001      14.811599190000001      8.1147960599999998
   204   1              3.59455496      14.779622059999999      7.3603399200000004
   205   1      2.9011355000000001             15.77850207      8.3803647699999999
   206   3      5.9485247299999999      18.743538919999999     0.45702325999999999
   207   1      6.8454389100000004      18.608987370000001              0.04044238
   208   1      5.6790596600000001      19.679823389999999     0.27723318000000002
   209   1      3.8629830100000002              15.2784879               11.161235
   210   3      4.7853390100000004              9.43125298      2.9113958700000002
   211   1      5.1274301400000004              8.65669735              2.38483614
   212   1      5.5151826899999996      10.027200929999999      3.2393278099999998
   213   3      10.689370329999999      8.9188988899999995      4.3037203799999997
   214   1             11.62465085      8.8441223699999991      4.6466560599999998
   215   1              10.7478351      8.8192601899999996              3.30772245
   216   3      11.064775190000001             12.06178637    -0.76730034000000003
   217   1             10.24353052             12.50646369     -1.1288452099999999
   218   1      11.777913140000001             12.74277275    -0.98063191000000005
   219   3             11.56605601      19.385241489999999      2.5334595499999999
   220   1      10.911747220000001             20.08235608      2.2379941799999998
   221   1             11.10820878      18.576347389999999      2.8682334200000001
   222   3      12.892346399999999             14.85916439      3.6253354799999999
   223   1             12.84565329             14.40614222      2.7632113500000002
   224   1      12.589833199999999             14.15552452      4.2831902900000003
   225   3      4.7444252699999998             14.70514109      6.0876126599999996
   226   1              4.49275746             13.80297435      5.7182049900000003
   227   1      5.6911206999999999      14.635303990000001      6.3847723399999996
   228   3              0.44701425             13.49458795             10.75901565
   229   1              0.82515158             14.38951022      10.775898659999999
   230   1     0.30751924000000003             13.22326213             11.73579808
   231   3             -1.60066672      18.601105400000002              10.3383444
   232   1     -2.3413456500000001      18.684337320000001      9.6579574200000007
   233   1     -1.5862688199999999      19.435091969999998      10.886709079999999
   234   3      7.3056049099999996      10.955026050000001      12.828733659999999
   235   1      7.6882844500000003             10.57190115             11.99514802
   236   1      6.3472301199999999      11.108758659999999             12.62941032
   237   3      3.7090006299999998             12.10644476             23.46397198
   238   1      3.5158998600000002             11.35840602      24.102005399999999
   239   1      2.8690916899999999             12.32086121             22.96432222
   240   3              1.45805425      12.901983960000001      22.060997149999999
   241   1      1.2954945200000001      13.887754080000001              22.0831713
   242   1      1.7291834100000001             12.76190134             21.11143676
   243   3              6.67104009      9.5639905899999995             15.53827751
   244   1      6.3289364900000002             10.40244848             15.95747177
   245   1      7.0449713200000001      9.8334943900000003      14.674127179999999
   246   3      6.8712639600000003      14.255308640000001      25.394462350000001
   247   1      7.1890356400000002      15.193726140000001      25.733001519999998
   248   1      7.4468312000000001             13.98557946              24.6586924
   249   3      1.8964332399999999      22.663533860000001      13.340606960000001
   250   1              2.51248827             23.39612601             13.65815186
   251   1              2.06044034      22.592874869999999             12.35200715
   252   3      1.6699361399999999             12.02505376             15.04694825
   253   1               2.5883067             12.41086073             15.00307433
   254   1      1.8034039100000001      11.098760499999999             14.72115576
   255   3    0.014164110000000001      18.812547299999999      13.559343419999999
   256   1     0.92823467000000004      18.836804879999999      13.234977689999999
   257   1    -0.47506468000000002      19.556593639999999      13.091945750000001
   258   3             -2.35724723              10.5853886      9.1481627700000008
   259   1     -2.0836957100000002             10.00547225      8.3753317999999997
   260   1     -3.3511147100000001             10.48351175      9.2740914500000002
   261   3      8.9588592899999995             16.42851769      7.5532087399999996
   262   1      8.1755144899999994              17.0462624      7.5473648799999999
   263   1              9.65370463      16.858168490000001      6.9772933300000002
   264   3      3.4893145799999998              4.82118673             17.29476858
   265   1      2.5582612500000002      4.9574295199999998      17.629416320000001
   266   1              3.46857799      4.9273430899999999             16.32642238
   267   3      2.0159684000000002      16.284143279999999      13.777950690000001
   268   1               1.0473242             16.06245951             13.68203538
   269   1              2.46064499      16.183270490000002              12.8974283
   270   3      3.7661060000000002      16.598705559999999      18.301081839999998
   271   1               2.9177377             16.83078575      18.772708380000001
   272   1      4.3255640399999997      17.435129830000001      18.302125870000001
   273   3      5.5593470099999998      18.753590519999999             15.34140363
   274   1      5.5832575999999996      19.745350569999999      15.301919010000001
   275   3              3.22375597             15.27270811             16.03760261
   276   1      3.4964132399999999             15.90379795      16.775675849999999
   277   1      2.7999757700000001      15.771643920000001      15.289216740000001
   278   3             11.92294482             14.92791371              7.40049446
   279   1      11.870807859999999      14.543217719999999      8.3049796699999998
   280   1             11.91062939             14.17095127      6.7478732700000004
   281   3              6.64287706             13.27155323              9.36854078
   282   1      7.3733021399999998      13.315776659999999             10.00891575
   283   1      6.9547483100000003      13.755672430000001      8.5291858699999992
   284   3             10.13786616      20.446883750000001             10.77442226
   285   1      9.7308519699999998      21.248401040000001      11.195663980000001
   286   1      10.191470219999999      19.719163550000001             11.44565955
   287   3             10.00177534      18.071750389999998             12.09527696
   288   1             10.58243687      17.767577549999999      12.816829540000001
   289   1      10.030098580000001      17.384821939999998             11.38285778
   290   3               1.4113794      17.168148179999999      19.644112069999998
   291   1     0.69125093000000004      16.830877610000002              19.0493065
   292   1               1.2694892      16.698294619999999      20.514666170000002
   293   3      5.5633983300000001      4.9097755100000002      2.1730725199999998
   294   1      5.3152123400000004      5.7528594899999996      1.6850082799999999
   295   1      5.5214473399999999      4.1716180200000004      1.5272342800000001
   296   3      13.365828049999999      2.3780626900000001      4.0166511299999996
   297   1      12.687464869999999      1.9117033400000001      3.4566851399999998
   298   1      13.864480560000001              1.59485309      4.3694727100000001
   299   3      7.9668081600000002      5.9760006099999998             10.86260727
   300   1      7.8566090600000003      5.8654745400000001      9.8732749000000002
   301   1      8.6391125399999993      6.6989972900000003             10.86877823
   302   3             10.70448332    -0.67699573999999996      6.2108459299999996
   303   1      10.348633420000001     0.25382717999999999      6.1530087800000004
   304   1      11.637772849999999             -0.65818029      6.5625270200000001
   305   3      18.081395059999998      4.5061802999999996             12.54674305
   306   1      18.957539059999998      4.4241753700000004             13.03812454
   307   1      17.444047690000001      4.9440590799999997             13.14349758
   308   3      7.8933775600000002             11.93799059      5.8613265300000004
   309   1      7.2160404099999997      11.741779380000001      5.1405527099999997
   310   1      7.6639395600000002             11.34929943      6.6304583700000004
   311   3      9.6662759900000008      3.8179776799999998      4.3338636399999997
   312   1      10.512117229999999      4.2088877299999998      4.6909480600000002
   313   1      9.0349974399999997              4.54874373      4.0779314400000004
   314   3      8.0030865500000008      5.7294991800000004      3.3577442799999999
   315   1      7.0851282400000004      5.4317972699999997      3.1356370299999998
   316   1              7.99282278      6.4121841699999997      4.0943078000000002
   317   3             10.19430472              2.90391669              1.88944673
   318   1      9.9010961399999999      3.1887470100000002      2.8078940100000001
   319   1      10.763436690000001              3.67521802      1.6298847400000001
   320   3             22.66764448      5.6285683899999999     -4.0407792000000002
   321   1      23.238851929999999      5.8681877099999999     -4.8105162200000002
   322   1      22.469917580000001      6.4973649900000003     -3.5856847100000002
   323   3             15.27324524     -3.7144079900000002      9.9176609199999994
   324   1             16.02641783     -4.2716531499999997      9.5835749299999993
   325   1             14.57175481     -3.7189921500000001      9.2301664199999998
   326   3      13.288673660000001      8.8716774600000008              5.17866143
   327   1             13.52609651      9.6947150799999999      5.6862200600000001
   328   1             13.88921397      8.8978629399999996      4.3694526800000002
   329   3      17.272653429999998      3.9137737000000001             -1.46787048
   330   1      16.674300559999999      3.6081191700000002              -0.6925405
   331   1      18.053292240000001      3.2976947399999998             -1.48073688
   332   3             14.81841745      3.0458732999999998      9.0862031699999992
   333   1             14.95217862      3.7507956299999998      8.3954155299999993
   334   1      13.856723649999999              3.02867285      9.3376953500000006
   335   3             13.44156871      6.4697829100000002      6.3565644600000004
   336   1      12.884258060000001      6.6914525200000003      7.1516179299999996
   337   1      13.494403269999999      7.3474692900000003      5.8718276300000003
   338   3             17.21099182      6.0672200500000004              0.29651526
   339   1      17.569002300000001      5.3968159099999999    -0.32899434999999999
   340   1              17.8443738      6.8237674899999998              0.31843421
   341   3             19.56222893      3.2339610300000001      6.3295819099999999
   342   1      18.557436989999999      3.2197427900000002      6.2967520099999996
   343   1      19.849701140000001      2.9685388499999998      7.2553200499999999
   344   3             12.71268079              1.96481594     -1.3275129400000001
   345   1             13.55236096      1.9918332999999999     -1.8623677700000001
   346   1      12.645259230000001      2.9133409600000002             -1.02131039
   347   3      19.254882200000001     -4.7612006300000003      7.2222452400000003
   348   1      18.640123979999998     -4.8216791099999998      8.0028377600000002
   349   1      20.116206590000001     -4.3669686199999997      7.5582666400000003
   350   3      14.314392120000001     -1.0098872400000001      13.404527910000001
   351   1      15.052086600000001             -1.37942849      12.808857619999999
   352   1             14.51893001             -1.29063682             14.33761114
   353   3      21.247271309999999      2.1856939099999999     -3.3959578000000001
   354   1      21.049800919999999      2.8368823299999999     -4.1434576600000002
   355   1      21.196124940000001      1.2565955200000001     -3.7801347700000001
   356   3      18.872872390000001              1.69196799      2.4291749999999999
   357   1      18.418651530000002      2.5565454299999999      2.6654592099999999
   358   1      19.299149119999999      1.3971269100000001      3.2901090200000001