4814
Lattice="37.273950709193954 0.0 0.0 0.0 37.273950709193954 0.0 0.0 0.0 37.273950709193954" Properties=species:S:1:pos:R:3:momenta:R:3:forces:R:3 stress="0.0037909475504420698 0.0007138459236557537 0.0006079510855556691 0.0007138459236557537 0.0042553647654131055 -0.00048623095312905207 0.0006079510855556691 -0.00048623095312905207 0.003577193943783641" energy=-23677.565965956775 pbc="T T T"
O        1.44849410       4.92687456      -0.16118604      -0.31971127      -0.56390633       0.25607444      -0.00111185      -0.00019901       0.00079030
H        1.41377864       4.91706847       0.83824839      -0.17515333      -0.02732098       0.06079173      -0.00088920      -0.00047729       0.00079783
H        1.18292460       4.03215375      -0.47154631       0.13962051       0.11052937      -0.00776174      -0.00111359      -0.00032036       0.00058203
O        1.64500220      -2.79875416       3.31460656       0.45731849      -0.02213079      -0.70925477       0.00072635      -0.00010665      -0.00082631
H        0.97004145      -2.68469743       4.02800125       0.04306441      -0.00283349       0.11455259       0.00048244      -0.00019557      -0.00047922
H        2.55367827      -2.58078092       3.66678144      -0.06247480      -0.17687694      -0.07916659       0.00046882      -0.00024112      -0.00079790
O        2.66615894      -0.22567666      14.18413006       0.39304993       0.64365807      -0.13893278      -0.00123984       0.00041779      -0.00512822
H        3.65760508      -0.35798855      14.23504461      -0.02957141       0.15311251       0.03422807      -0.00086470       0.00108914      -0.00461542
H        2.25936522      -1.11827115      14.36223779      -0.03519596       0.02374870       0.21296773      -0.00015665       0.00049867      -0.00374849
O       -1.39317727       1.94067243      12.18444346      -0.24771366      -1.00761784      -0.54776203      -0.00146517       0.00097283      -0.00030960
H       -1.10452009       2.88902270      12.28687697       0.22359186       0.03815235      -0.11376429      -0.00136068       0.00097449      -0.00004500
H       -2.31170404       1.92211509      12.59114741       0.17240721       0.03083054       0.01430984      -0.00140716       0.00089297      -0.00042986
O        4.68066500       0.52417273       6.73747509      -0.56425530       0.46923795      -0.22618718      -0.00034636      -0.00027704      -0.00050291
H        4.63953174       1.29273380       7.38159257      -0.06802443      -0.11369809      -0.19057811      -0.00038140      -0.00005658      -0.00039939
H        4.48292580       0.90722826       5.83387875       0.12417127      -0.04928202      -0.30210327      -0.00028103      -0.00019433      -0.00045433
O        6.76173271       6.44557808      14.44746719      -0.83785386      -0.30864103       0.29657175       0.00011752      -0.00255950       0.00158913
H        7.68670513       6.74505980      14.39369037       0.08996814       0.09679915       0.00324352      -0.00082314      -0.00394539       0.00145967
H        6.42824170       6.80844897      15.32834257      -0.06662981       0.03457654      -0.03659966       0.00017066      -0.00258746       0.00230416
O       -3.62019280       8.95908243       3.14239711       0.46903583      -0.64486988       0.90768354      -0.00001219      -0.00009882      -0.00031370
H       -3.85878039       9.81512046       2.69951156       0.14393092       0.03412688       0.37883665       0.00007906      -0.00033125      -0.00000110
H       -2.70317764       9.04637773       3.53701118      -0.05193291      -0.17674355       0.16107088       0.00023267      -0.00022716      -0.00021032
O       -3.65862534      -1.05755506       2.09031840       0.30424526      -0.01627151       0.57194096       0.00094955      -0.00078675      -0.00014700
H       -4.39177201      -0.78167613       1.47286299      -0.10585125      -0.31320819       0.26507524       0.00086038      -0.00040255       0.00010149
H       -2.94622337      -0.38956335       1.84072067      -0.09936014      -0.11078025      -0.12374588       0.00098710      -0.00067061      -0.00024287
O        1.11561421       5.86173331       6.51198874      -0.14884849      -1.25253373       0.46652478      -0.00015702      -0.00054706       0.00045315
H        1.02614116       4.87231669       6.34868792      -0.11623149      -0.07281340       0.12203704      -0.00018531      -0.00032297       0.00034964
H        0.86035048       6.33851382       5.67185014      -0.12753914      -0.05259810      -0.00728555      -0.00013420      -0.00030999       0.00030749
O        0.84757723       2.25594459      -1.42246245       0.17522265      -0.38953650       1.20184784       0.00011587       0.00009058      -0.00010857
H        1.53529832       2.35146919      -2.15617395      -0.22779321      -0.02835832      -0.12131120      -0.00002631       0.00006410       0.00011560
H        1.34177979       1.87981845      -0.63108983      -0.31157261      -0.27302966       0.09608698       0.00003320       0.00003347       0.00000911
O       12.67782006       9.80392009      -0.18948722       0.22427210       0.96736250       0.07673870      -0.00075007      -0.00034552       0.00015066
H       13.28413025       9.40955919      -0.87644388       0.09152350       0.17378263      -0.11919618      -0.00070072      -0.00029595       0.00040034
H       12.11721921      10.49062486      -0.61806798       0.17224031      -0.00122501      -0.12129050      -0.00074177      -0.00021525      -0.00009127
O        5.10215142      -1.47391510      11.80679271       0.10477702      -0.42333071       0.01369577       0.00017593      -0.00159421      -0.00179055
H        5.80720377      -2.15704958      11.71755719       0.08009513      -0.11333326      -0.07379280       0.00036340      -0.00152780      -0.00159772
H        5.21428763      -1.09107957      12.72109169      -0.08973788      -0.17610971       0.08065683      -0.00006559      -0.00137045      -0.00218457
O        1.25963252       5.12767347       2.59235432      -0.35129763      -0.08358264      -0.43752938      -0.00044976      -0.00027300       0.00060048
H        0.43698037       4.66188925       2.91194999       0.17287952       0.07103710       0.22912665      -0.00040161      -0.00035956       0.00085120
H        2.03496478       4.71249462       3.06186304       0.13842390       0.13108890      -0.05879109      -0.00028057      -0.00029906       0.00063056
O        5.58112580      -0.16691858       3.03772785      -0.18700005       0.58351160       0.33099825      -0.00014278       0.00003922      -0.00027840
H        5.78488444      -0.12894850       2.06108062       0.20379290      -0.14056832       0.11902482       0.00001599       0.00012946      -0.00092477
H        5.12096723      -1.03696386       3.23411116      -0.05003215       0.20033885      -0.00900054       0.00010292       0.00002647      -0.00071792
O        1.41350512       1.11527005       4.75348393      -0.68993490       0.66103378       0.41418258      -0.00017020      -0.00030188       0.00022473
H        1.26512665       1.93699602       5.31802925       0.06012043       0.15922155       0.10719488      -0.00010991      -0.00029559       0.00025986
H        2.39489014       1.14100720       4.53575350      -0.04196124      -0.12131063       0.05038431      -0.00004047      -0.00016953       0.00000642
O       -1.27718097       9.13419593       4.51707649       0.21651619      -0.20660290       0.41689230       0.00006901      -0.00014313      -0.00020887
H       -0.87280254      10.04493560       4.55060133      -0.03631263       0.07476375      -0.06957015       0.00006572      -0.00014463      -0.00018408
H       -0.54135261       8.49300402       4.29762620      -0.04134020       0.01561855      -0.14409914       0.00019768      -0.00018084      -0.00004238
O        7.05286570      10.77567301       8.25387575       0.24589642       0.44229517      -0.67276542       0.00067977       0.00063731       0.00078337
H        6.70973422      11.62936112       8.62159136      -0.01528455       0.04958587      -0.11413042       0.00050761       0.00059938       0.00086168
H        6.28354390      10.12842112       8.29183112      -0.08711223       0.07639022      -0.07421949       0.00072842       0.00060881       0.00074044
O        8.60189884      10.30052644      10.43129758      -0.61840155       0.33441929      -0.27995638       0.00040235       0.00087304       0.00167426
H        9.07830524       9.46055377      10.19358827      -0.11827973       0.07318853      -0.04188368      -0.00085347       0.00009274       0.00275584
H        8.04856569      10.47961877       9.61181269       0.15391372      -0.12531644      -0.16483371       0.00085778       0.00097239       0.00118807
O        7.11676997       8.64468940       0.02949908       1.13221071       0.17467369       1.41288808      -0.00056950       0.00004100      -0.00056560
H        7.91098279       8.19732337       0.41596762       0.17031881       0.23018687       0.21068379      -0.00065303      -0.00024782      -0.00044075
H        7.12915108       9.62617654       0.21318018       0.00789604      -0.16498965      -0.06830232      -0.00040651      -0.00019419      -0.00046753
O        6.69306989      -0.66022455       7.85129438       0.34279217       0.52024232       0.22532445      -0.00046540      -0.00069506      -0.00122903
H        6.02509222      -0.20892920       7.23081280       0.25246642      -0.09321865      -0.07729955      -0.00043449      -0.00072749      -0.00057119
H        6.12235828      -1.17442289       8.44996764       0.17852835      -0.06414013      -0.08839558      -0.00102972      -0.00127352      -0.00063943
O       11.11861639       4.37991936       8.02311189      -0.31387748      -0.11074187       1.12406672      -0.00133199       0.00029540       0.00154031
H       10.16834190       4.05916996       7.97379774      -0.18298905      -0.10123929       0.10243358      -0.00108825       0.00005094       0.00118573
H       11.50073296       4.21589660       7.10977412       0.00010669      -0.05623697       0.01478304      -0.00113997       0.00057094       0.00163568
O       11.07410665       5.24682332      -3.10303499       0.61128239       1.04737546       0.38370120      -0.00058414       0.00019428      -0.00017635
H       11.54907617       5.02114413      -2.24796066      -0.05140893       0.05671058      -0.02482727      -0.00046594       0.00019936      -0.00020569
H       10.45840215       4.49336883      -3.34987826       0.02657905      -0.13978510       0.05586897      -0.00034103       0.00022936      -0.00020485
O       11.33845212       5.37613835       1.37426557       0.41761744       0.25780431      -0.59020059      -0.00085114      -0.00043665      -0.00033732
H       12.05760678       5.92360366       1.79597125      -0.03865973      -0.04324951      -0.11801018      -0.00076354      -0.00032998      -0.00009231
H       10.53372208       5.94531851       1.24935071       0.01356212       0.01478944       0.16284284      -0.00088045      -0.00030395      -0.00018793
O        7.76908223       1.39887245       9.31948392       0.76384470       0.15404053       0.64267883      -0.00050693      -0.00118931      -0.00076647
H        7.59786021       0.63020526       8.71280486       0.24142310       0.13227776       0.02727691      -0.00060872      -0.00107647      -0.00079776
H        8.66471071       1.30087708       9.75530459       0.08086766       0.04058627       0.09792118      -0.00063709      -0.00127621      -0.00073928
O       14.63071993       6.34945566      -0.38418192      -1.20523981       0.15596888       0.42159854      -0.00053160      -0.00046226       0.00025401
H       15.60872392       6.22407331      -0.17477547      -0.05107847       0.02265028       0.06648655      -0.00027217      -0.00058138       0.00054372
H       14.58725126       7.20388339      -0.90479512       0.07629271      -0.07485036      -0.14065406      -0.00029476      -0.00045731       0.00048026
O        4.72665711       4.64447653       9.87234883      -1.04305615       0.03706755      -1.14583190      -0.00073262      -0.00048613       0.00054701
H        5.24802620       4.39098956      10.67532821       0.11118814      -0.09635823      -0.16812326      -0.00076954      -0.00075031       0.00036100
H        4.69402207       3.79034740       9.33535296      -0.22368877      -0.00123658      -0.04180537      -0.00066422      -0.00026993       0.00016641
O        3.58959951       4.17118891       3.86615798       0.61422833      -1.41805890       0.61023282      -0.00021488      -0.00003752       0.00037885
H        3.70130077       4.74688099       4.67656384       0.06997604       0.05291816       0.12275838      -0.00013244      -0.00019320       0.00034257
H        4.30987862       4.48076326       3.24278210       0.07166292      -0.14475217       0.10021712      -0.00050001       0.00004673       0.00015861
O        1.73876291       2.34526391       8.73519860      -0.05089129      -0.49145654       0.58145499      -0.00048240      -0.00041449       0.00031855
H        1.32029736       1.45440466       8.94299560       0.31016417      -0.12529447       0.25481303      -0.00018830      -0.00055758       0.00043180
H        1.69698890       2.96253571       9.52457235      -0.07452296       0.01769665      -0.01547684      -0.00055988      -0.00040727       0.00063283
O        5.57549336       1.03965312      10.78130369      -0.08301817       0.92216977       0.55435145      -0.00052876      -0.00113464      -0.00115666
H        5.40938068       0.10237197      11.07531468      -0.05843425      -0.11001680       0.05217686      -0.00054621      -0.00144366      -0.00159433
H        6.46681425       1.06697214      10.31882085      -0.09966123       0.06323233      -0.25814514      -0.00061052      -0.00098817      -0.00104339
O        2.27818057       4.21060709      29.38987518      -0.91610713       0.17431178       0.53555881      -0.00005236       0.00050036       0.00013996
H        3.17863850       4.52046989      29.07145070       0.04009755      -0.28761480      -0.12335073      -0.00002608       0.00055547       0.00002592
H        1.63385354       4.97648821      29.29454559       0.17085306       0.04126047       0.32634173      -0.00003576       0.00048959       0.00010679
O       -3.67642938       2.04272667      15.95256658      -0.02627771       0.30687064      -0.82223336      -0.00135260      -0.00091271      -0.00002745
H       -3.73596888       1.97396078      14.95243370       0.05748720      -0.05631954      -0.02525227      -0.00148584      -0.00068010      -0.00011172
H       -3.00339666       2.75673150      16.14505075      -0.25640795       0.23211090      -0.05394869      -0.00134436      -0.00106122       0.00000133
O        9.03140869       3.44428038      14.50243499       0.27725277       0.34945515       0.10794710      -0.00184018      -0.00280762      -0.00075910
H        9.03413344       3.61818784      13.45394181      -0.25288946       0.15615876      -0.01736517      -0.00193921      -0.00248577      -0.00108856
H        7.97977836       3.54843496      14.71190729       0.01713342       0.12136868      -0.18763573      -0.00203399      -0.00288524      -0.00062720
O        8.14365168       5.69983553      26.67618567      -0.76421677       1.20373587      -0.04711342       0.00062948       0.00008447      -0.00186072
H        7.19669268       5.89566627      26.42365990      -0.19192335      -0.02599349       0.09407664       0.00097230      -0.00042540      -0.00132469
H        8.32611548       4.74504505      26.46876672       0.10118508      -0.20942152      -0.26587506       0.00088789      -0.00047339      -0.00127230
O       -2.39555922      16.49493068      11.83404236      -0.03642701      -0.70439749       0.54260331      -0.00123275       0.00103325      -0.00109186
H       -2.04362900      17.24838369      11.27042446       0.21511052      -0.05045853       0.25190852      -0.00128460       0.00125344      -0.00085816
H       -2.83727780      15.85138727      11.21370723       0.03551398       0.07128036      -0.05790090      -0.00106491       0.00104280      -0.00133828
O        5.45322823       6.94357689      12.11664553       0.68587061      -0.36122181      -0.21375642       0.00131621       0.00019000       0.00058850
H        6.14426903       6.57259656      11.51887661       0.17578864      -0.09362575       0.07054022       0.00136140       0.00005879       0.00122062
H        5.94008871       7.01058559      12.97900378      -0.00290152       0.03773248       0.03670275       0.00071794      -0.00064424       0.00145874
O       -2.72428019      12.47261271      16.43474301      -0.08657903       0.50839255      -0.22134319      -0.00300964       0.00195457      -0.00174485
H       -2.38459262      13.36256082      16.14031130      -0.10857626       0.01646809       0.00034792      -0.00275685       0.00174907      -0.00181428
H       -3.23210105      12.71377532      17.26854267       0.04269805       0.15206782       0.15833580      -0.00301644       0.00198543      -0.00176162
O        0.81634570      -0.14224616       8.92487221       0.37942938       0.21321142       0.83407485       0.00010089      -0.00069383       0.00046015
H       -0.00116577      -0.20811936       9.50717003      -0.04928692       0.05570662       0.16891095       0.00001231      -0.00023722       0.00025272
H        0.50711576      -0.33779840       7.99077580       0.01287942       0.06386940      -0.03263539       0.00029920      -0.00070545       0.00045855
O       12.05852996       4.28882075       5.48859168      -0.84366272      -0.39157045      -0.01467313      -0.00121947       0.00037243       0.00127598
H       12.62048323       5.10701292       5.59619151       0.02946480      -0.08685443       0.05282430      -0.00157022       0.00056191       0.00195209
H       12.61292572       3.58131868       5.05315687       0.43854866      -0.21312437      -0.01691781      -0.00092918       0.00084336       0.00135192
O        6.47399820      -7.07036460      22.37293161      -0.02574347       0.85326390      -0.23095610       0.00208989      -0.00013045      -0.00151823
H        6.73205066      -6.41661640      21.66936686       0.08729433       0.14335561      -0.00873700       0.00153598      -0.00109143      -0.00052719
H        5.58226500      -6.76683805      22.72142935       0.16125143       0.07255751       0.20036352       0.00180376      -0.00037652      -0.00058693
O        3.36385534       7.91821009      15.63137408       0.12577124       0.57708341       0.38882237      -0.00099312       0.00429510      -0.00288929
H        4.29403325       7.94617706      15.94255641       0.19047984      -0.19603942       0.14867519       0.00053274       0.00748809      -0.00439348
H        3.23719349       8.64954210      14.95956006      -0.05091541      -0.14928973       0.01685549      -0.00315398       0.00273345      -0.00266053
O        6.07906369       3.33903125      11.97857358       0.39374623      -0.19060085       0.16368638      -0.00090705      -0.00181542      -0.00033076
H        6.01192220       3.44300200      12.96099431       0.01467378      -0.08125876      -0.06714402      -0.00107132      -0.00198362       0.00008393
H        5.78743103       2.41155197      11.73200473       0.05511942       0.02742799      -0.14485965      -0.00092832      -0.00154580      -0.00047798
O        5.05052673       2.12960609      15.84088526       0.13394141      -0.71158357      -0.42949414      -0.00239671      -0.00166372       0.00032004
H        5.00794788       2.11582478      16.82867644       0.00001680       0.21293937      -0.02467606      -0.00265551      -0.00101552      -0.00010346
H        4.07249698       2.22141489      15.57667266      -0.04625188       0.09868741       0.17933921      -0.00222515      -0.00139457      -0.00031207
O        6.06546736       7.32388505      16.86196487       0.00260056       0.12411238      -0.05872268       0.00252614      -0.00188237       0.00206288
H        6.68310123       6.71385571      17.37201678      -0.20265511      -0.17408720       0.14280557       0.00371765       0.00000900       0.00213547
H        6.51792815       8.17379333      16.60443977       0.09096751      -0.04057052       0.17755295      -0.00002714      -0.00083837       0.00107548
O        5.75381678      11.79463109      16.77392449       0.16236571      -0.01976634       0.84050003      -0.00426247       0.00077263       0.00005087
H        5.20031513      11.49974582      17.54885690       0.00033776       0.13748661      -0.14969933      -0.00370845       0.00116593       0.00038510
H        5.12751532      12.26870766      16.16236190       0.04977780       0.12001991      -0.12829637      -0.00424863       0.00147471       0.00043428
O        6.58024123       3.75486570      14.65672447      -0.30434455       0.67518587      -0.98340093      -0.00186992      -0.00245353      -0.00019672
H        6.43233572       4.73524515      14.71802673       0.22467773      -0.10638527       0.12188383      -0.00139216      -0.00237729       0.00039497
H        5.93545910       3.20428596      15.24360001       0.01641613      -0.11528751      -0.02068364      -0.00217052      -0.00235712      -0.00000092
O        4.38618849       2.26947549       8.71922205       0.05843520      -0.78693190       1.20760347      -0.00064460      -0.00006913      -0.00055715
H        4.69131377       1.70876681       9.49170877      -0.01827328       0.02971071      -0.32279005      -0.00041915      -0.00049014      -0.00058319
H        3.37832052       2.23641421       8.71852916      -0.10818028       0.10022411       0.05316408      -0.00042668      -0.00011945      -0.00025907
O        9.70504332       1.38379024      16.56135687      -0.26192326      -0.86158112      -0.74928477      -0.00164353      -0.00130760       0.00028852
H        9.59926666       1.65956425      15.63092479      -0.17313062      -0.10860141      -0.16322242      -0.00206246      -0.00091058      -0.00085186
H       10.69302272       1.37442405      16.74849976      -0.11538631       0.14961630       0.16019152      -0.00213211      -0.00156552      -0.00052201
O       12.13195453       4.30405614      17.54738826      -0.43798624       0.63384807      -0.29619259      -0.00040728      -0.00233671      -0.00077684
H       11.97376168       4.68424587      18.46550451       0.05907600      -0.15000280      -0.20464380       0.00000044      -0.00175621       0.00018550
H       13.09757858       4.49167589      17.32096028      -0.00474797       0.00438307       0.03998160      -0.00173465      -0.00226431      -0.00099252
O        9.18396188       1.60894402       5.82503487      -0.68848061      -0.56427162       0.02733213      -0.00028957      -0.00037466      -0.00031813
H        8.54431374       0.99529104       5.35726187      -0.13508321       0.24098781      -0.17133226      -0.00015868      -0.00041482      -0.00044596
H        9.37364696       2.33979057       5.17615188      -0.14760133      -0.11786077      -0.03578217      -0.00036430      -0.00029379      -0.00015516
O       15.71039623       7.43459232      11.51642472       0.84993527       0.01983242       0.31882050      -0.00110108       0.00390744       0.00233161
H       15.92737832       7.54521418      12.50305752      -0.34198388       0.06062670      -0.15174181       0.00030984       0.00507971       0.00174543
H       15.68804774       6.44275765      11.35451174      -0.22410804      -0.26301028      -0.02168094      -0.00193875       0.00409344       0.00319788
O        9.40879677       6.79403484      19.82103730      -0.26641111      -0.03917517       0.31263110       0.00548603       0.00397680      -0.00667657
H        9.03805487       6.65828052      20.74288586      -0.14661926       0.04426050       0.10220642       0.00645732       0.00507234      -0.00598345
H        8.70200135       6.38068530      19.23934590      -0.12355146       0.26590436      -0.17099068       0.00482019       0.00180548      -0.00412912
O       12.23112993       2.99092234       9.97857869       0.46684340       0.19286999       1.68752390      -0.00093384      -0.00056510       0.00052908
H       11.79483273       3.52522079       9.24613059      -0.10434087       0.07099113       0.01226336      -0.00112020      -0.00041448       0.00075618
H       11.53961184       2.31147294      10.21524747       0.12158135       0.02020031      -0.11205224      -0.00056394      -0.00107473       0.00007715
H       10.02480610       5.92246321      16.20373503      -0.21974872       0.01855215       0.06938305      -0.00409420      -0.00344478       0.00202700
O        2.45765129       8.69039027      18.14206114       0.27699710      -0.34512796      -0.35084522      -0.00082944       0.00078134      -0.00117018
H        1.50002229       8.79274381      18.40057535       0.03964354      -0.15721191       0.15772772      -0.00135626       0.00089716      -0.00205555
H        2.51863154       8.38212420      17.20413963      -0.09259672       0.25204535       0.07128930      -0.00044326       0.00175841      -0.00172804
O       -2.50500709      18.65868899      -1.41345739       0.09709884      -0.09007162      -0.40802901       0.00032542       0.00036941       0.00061662
H       -2.89775470      19.47102448      -1.86671959       0.23642444       0.16790735      -0.30165332       0.00014877       0.00042862       0.00042253
H       -1.62165621      18.51863447      -1.87595323       0.00289098       0.03331992      -0.12584013       0.00020342       0.00037834       0.00058025
O        3.22076140       8.27863244       4.71340796       0.27129868       0.51971239      -0.27232350       0.00008329      -0.00007008       0.00046967
H        3.24089013       8.98636895       5.43034934      -0.10869066       0.11143041      -0.02264343       0.00015324      -0.00018623       0.00038107
H        3.80611556       8.67135850       4.00191753      -0.00026889       0.21874469      -0.08630204      -0.00015921      -0.00006959       0.00028215
O        4.18026231      13.08025014      15.01584073       0.64205830      -0.95681125      -0.15246386      -0.00314929       0.00281948       0.00070343
H        3.99863575      14.01984697      15.34673949       0.12677982       0.06255774      -0.13365141      -0.00252091       0.00242727      -0.00068693
H        4.56763390      13.12833866      14.12533420       0.08956116      -0.05252589      -0.19878968      -0.00170048       0.00223154      -0.00081655
O       -1.21517488       8.99968243       7.32337764       0.74363245       0.49446728      -0.72471960      -0.00045983      -0.00049904      -0.00027679
H       -0.36182156       9.52864239       7.36787297       0.10295939      -0.14722534      -0.17780795      -0.00037585      -0.00035149      -0.00015520
H       -1.40535301       8.95591877       6.34626415       0.16573341      -0.25257802      -0.04009171      -0.00017320      -0.00043693      -0.00042170
O        3.39384866      10.21823761       6.51256283      -0.65744576      -0.28032655      -0.96613086       0.00004987      -0.00004821       0.00042728
H        3.94263241       9.85530450       7.26997719       0.47864395      -0.00906457       0.07683107       0.00010047       0.00020144       0.00055689
H        2.45035838      10.32222411       6.84571982      -0.09509021      -0.03306818       0.11432342      -0.00003354      -0.00029650       0.00030102
O        4.07095647      20.08521286       4.71617752      -0.65608021       0.56713346      -0.59164868       0.00048874      -0.00013480       0.00181553
H        4.02655915      21.04860368       4.44797146       0.03366582       0.01080356       0.19161393       0.00033850      -0.00012372       0.00154941
H        4.60305196      19.59233719       4.02771966      -0.03318111      -0.02994312      -0.07468550       0.00021408      -0.00009605       0.00182431
O        0.89164051      10.65619673       7.27885942      -0.02579513      -0.77676401      -0.78152088      -0.00033412      -0.00037333      -0.00014384
H        1.16264290      11.16389665       8.09992028      -0.14678757      -0.12826619       0.07140453      -0.00039975      -0.00007141      -0.00051392
H        0.52432372      11.26073544       6.57396443       0.16304264       0.14262971       0.03253201      -0.00034317      -0.00054737      -0.00049287
O       -5.24440039      17.19387040       6.95372287      -0.23390315       0.26082298       0.39636509      -0.00085828       0.00017081      -0.00030091
H       -5.47321183      16.37791767       7.49445400      -0.05483485      -0.25015824      -0.00089960      -0.00086179       0.00038572      -0.00059812
H       -4.68801487      17.75385792       7.57244045      -0.11878254      -0.18377419       0.29646710      -0.00075765       0.00032473       0.00012049
O        0.22197483       8.81800352       0.36045056       1.02401213      -0.07357101       0.19731987      -0.00020595       0.00081938      -0.00366272
H       -0.39407560       9.34143149      -0.24677747      -0.04500158      -0.25739861      -0.26701644       0.00008461       0.00105789      -0.00035681
H        0.15226988       9.23262939       1.23660740      -0.04451920       0.07263038       0.05742703      -0.00048089       0.00344397       0.00196635
O       12.26541354      16.46745488      -1.04297430      -0.45437943       0.17723936      -0.02338236       0.00024594       0.00013503      -0.00017551
H       12.49177691      17.20746041      -0.40121693      -0.06005728      -0.14502505      -0.12568232      -0.00005012      -0.00031095      -0.00034182