243
Lattice="13.780819533344879 0.0 0.0 0.0 13.780819533344879 0.0 0.0 0.0 13.780819533344879" Properties=species:S:1:pos:R:3:momenta:R:3:forces:R:3 energy=-1273.444276398836 stress="0.0022095185704529285 0.0013604689515887003 -0.0015857258913456462 0.0013604689515887003 0.002835302089806646 -0.0021452048222272424 -0.0015857258913456462 -0.0021452048222272424 0.0002766998950392008" pbc="T T T"
C        6.09320884      11.07281367       9.75414132       0.00140834      -0.20076446       0.28997816       0.70280027       1.58314645       1.08065772
C        5.39718891      11.27992937      11.10475408       0.19111161      -0.94367295       0.16712490      -0.43384308      -1.00537729       0.34612128
O        5.88395977      10.57646120      12.26971318      -0.35657980      -0.69068646      -1.24405345       1.06421006       0.18104772      -0.24347386
H        5.84646620      11.17963525      13.05925338      -0.18217739      -0.16465772       0.31023504      -0.68261820      -0.05643165       0.17733102
H        5.45913591      12.36278455      11.19523059       0.17017727       0.00190438      -0.31304204      -0.23117296       0.43648762       0.61460936
H        4.34628039      10.91202853      11.11577704       0.03213279      -0.32563605      -0.19558832       0.09934372       0.57042527      -0.67525804
H        5.32579859      11.33356839       9.04423175      -0.07392671      -0.39463800       0.10210742      -0.18021561       0.12312808      -0.86057478
H        6.96503617      11.78041411       9.66654535      -0.05568622       0.15164386      -0.17711033      -0.88772243      -0.15263604       0.12408264
H        6.56062184      10.15946285       9.50626826       0.02172691      -0.22236028      -0.17934071       0.10555953      -1.63067746       0.08585738
C        1.92053614      11.76203284       1.05328224       0.50340967       0.43429536       0.22964468       0.51782584       0.87293696      -3.16671824
C        2.48175277      12.75081751       1.97779062      -0.80936623      -0.11787976       0.08328362      -0.57559538       1.72400534       0.53868854
O        3.42311238      12.07761770       2.83472276      -1.96468875      -0.92789707       0.60688970       0.22564875      -0.47912219      -1.78065681
H        3.37263398      12.62356930       3.60494955       0.26908987      -0.26883961      -0.14719135       0.43369541       1.05924046       2.13995481
H        2.86411801      13.73606720       1.51736138       0.13226637       0.09947836       0.04717732      -0.10810737      -1.25789809       0.37864202
H        1.68888729      13.07894524       2.65712694       0.15001566       0.13171401      -0.14580717      -0.29931581       0.27912340       0.05217696
H        2.67554322      11.60135159       0.26994844       0.00177791      -0.09225775      -0.07895296       0.11957420      -0.18993551      -0.02565194
H        1.73178800      10.85734128       1.49715346      -0.12747000      -0.20203511       0.12943096      -0.36717504      -2.48678184       1.38923776
H        1.01771723      11.96122831       0.45948438      -0.06360562       0.06415125      -0.03027087       0.01209812       0.61946672       0.52871871
C        3.92511671      11.43450246       6.21871327      -0.91879172      -0.33516869       0.03988110       0.67480576       0.18165605       0.20820341
C        2.72705072      10.65665231       5.74854813      -0.09159004       0.02895014       0.40132600       0.18660377       0.02920964      -1.61605036
O        1.60324757      11.53511816       5.60376896       0.28753065       1.06047641      -1.78638036      -0.16270408       0.11285023      -0.34681380
H        0.93363034      11.10385577       5.03489194       0.18720848      -0.06884559       0.00452752       0.02877680       0.20579688       0.27116463
H        2.96030849      10.19413914       4.73342883      -0.26690709       0.08781752      -0.13101166      -0.22155426       0.20228173       0.88036585
H        2.44345892       9.88735856       6.48467742      -0.02656322       0.02841236       0.02202019       0.11139975      -0.13945556      -0.07437482
H        4.64632569      10.67579165       6.52436284      -0.06903007      -0.20853421      -0.11713561       0.48078987       0.09168830       0.09463570
H        4.46431415      12.22683661       5.62456814      -0.03709052      -0.08897456       0.10875367      -0.82832235      -1.00785625      -0.09482260
H        3.60099621      11.95150970       7.10536623      -0.03482863      -0.20819504       0.16990030      -0.06614773       0.34151712       0.77660847
C        1.87257850       2.11935524      10.32870592      -0.09846830       0.06227744      -0.58648086       1.59537947       0.36212832      -0.33594924
C        2.17039545       3.55170185       9.65519532      -1.03675500      -0.16932560      -0.65948480      -0.58211935      -1.73551655       0.36932683
O        1.19929943       4.51036613       9.88985740      -1.20331655       0.26663886       0.24913657      -1.49894774      -0.60814697       0.31100529
H        1.48799719       5.42166823      10.03309618      -0.02596937       0.10746349       0.00356558       0.77994812       1.08115590       0.23602822
H        3.17843247       3.95366056       9.84003048      -0.21640706      -0.21921971       0.01008533      -0.01939808      -0.18772455       0.23738131
H        2.09196749       3.29692516       8.60731584       0.05688527       0.00892971      -0.15505562       0.23144834      -0.07414217      -0.78149623
H        2.28331267       1.35292562       9.59235428      -0.00955984       0.07452717       0.15432772      -0.40097675       0.70528197       0.86544138
H        2.50097256       2.08697176      11.24860662       0.18144775      -0.08740951      -0.02135944      -0.17315222      -0.13088955      -0.42956963
H        0.87048320       1.78889526      10.64475351      -0.01787930       0.12931173      -0.33978157      -0.05872135       0.72723901      -0.47224271
C        0.30016050       3.83010654       1.46770426       0.11890693       1.08491853      -0.82735186      -1.55701423      -0.11849698       1.40851462
C        1.35795072       3.50505362       0.44677257      -0.12727293       0.37820563       0.24569826       0.47301269      -1.24975646      -1.07112515
O        2.41374923       2.72246317       1.02249488      -1.37007104      -1.27782042       0.28580424      -1.73963177      -0.07421629       0.83167654
H        3.21228405       2.84003356       0.51010982      -0.09708221      -0.16827585       0.14773160       1.17048061       0.40259609      -0.67881519
H        0.96187013       2.82610482      -0.37383183      -0.05212108       0.22903485       0.05473986      -0.15200867       0.55029362       0.50078595
H        1.77173600       4.36501889      -0.14849285       0.35300683      -0.02427328      -0.09959126      -0.23704894      -0.13010775       0.54614127
H       -0.12971091       4.84397939       1.29431398      -0.08292330       0.21365340       0.11029057       0.09412722      -0.52706563      -0.09368375
H       -0.57756804       3.08839330       1.52876930      -0.19096564       0.02019662      -0.15462407       1.08413744       0.86548924      -0.59870052
H        0.62168926       3.84451355       2.54212081       0.04275988       0.05740191      -0.00386045       0.28999662       0.15076360      -0.89038897
C        2.09634390       2.28280751       4.46700777       1.05332426       0.71542373       0.01695591      -0.43176007       1.03746665      -0.12598522
C        2.31866453       1.26465096       5.56026032       1.77266924       0.59094911      -0.00563434       0.17049330      -1.12876594      -0.23713031
O        2.87631387       0.04776290       4.91843898      -0.76728227       0.42308539      -1.55307744      -0.95408791      -0.02135587       1.28303635
H        2.43217629      -0.75042321       5.38572373      -0.08507135      -0.00388097       0.03646059       0.44568619       0.69805932      -0.70166010
H        2.97822329       1.49057106       6.45646807      -0.04635116       0.25896174       0.00738176      -0.52875072       0.10561737      -0.97147304
H        1.28999615       1.03222613       5.90298748       0.09276034       0.06271768       0.01186441       0.25648603      -0.15441820       0.33723080
H        2.94141987       2.39156233       3.77587620      -0.18465279       0.13836096      -0.00536819      -0.16398805      -0.32871068      -0.17126992
H        1.11893343       2.11325469       3.93327215       0.20059160       0.09861252       0.00994945       0.94293916      -0.27986932       0.10683762
H        1.93718438       3.29759166       4.86745305       0.04258015       0.12242418       0.06784821       0.24488619      -0.08154172       0.22244841
C        2.80405723       6.97777047      12.90419379       0.86615515      -0.76440957       0.21448893      -1.62780833      -0.05689668       1.31313026
C        1.61343950       7.06167169      11.90891860       0.38627059       1.04937782      -0.07371577       1.22484791       0.30206737      -0.47572485
O        2.16842244       6.95867723      10.58688783       0.12182807      -0.86428283       0.02565455      -1.47655654       0.13292719      -0.62831533
H        3.09484093       6.64360679      10.55132688       0.08614255      -0.58756219      -0.20238490       0.56755334      -0.03570257       0.32896137
H        0.79188289       6.30937321      11.98116450      -0.22443752      -0.02753029      -0.05704752       0.57069886       0.20589666       0.22112918
H        1.16331832       8.08791877      11.97829938      -0.30964759       0.20067524       0.17333741       0.19901258      -0.63407707       0.00872690
H        2.60380048       6.18949976      13.66142905       0.22037327      -0.01307535       0.27223845       0.11415255       0.23557466      -0.35173339
H        3.81715274       6.84006149      12.53046877       0.06260688      -0.05001601      -0.36274531      -0.07334691       0.15894958      -0.38064620
H        2.70973556       7.91718183      13.48665936       0.15274817      -0.28415664       0.13808196       0.49314138      -0.21479952      -0.14078090
C        2.29359771       7.36066381       2.83344520      -0.29325136      -0.20924553       0.07922775      -0.47154653      -0.64011532       0.76828891
C        1.77299429       6.82098023       4.17442527      -1.46780862      -0.17191585      -0.44231427      -0.07452010       0.77480292      -0.14940417
O        0.87008649       5.79471885       3.89699217      -0.62867502      -1.50320803      -0.08605195      -0.92580140      -0.75271696       0.07710413
H        0.21583677       5.62331828       4.62234327      -0.04178027      -0.02465572       0.01446389       0.52274436      -0.00345037       0.00534583
H        2.62306628       6.45632018       4.73921887      -0.03084181       0.02003744       0.27582467       0.58197373      -0.46921960       0.43394423
H        1.28003010       7.55931814       4.84187444      -0.15300704      -0.06722031       0.07607392       0.12091908       0.26408362      -0.30604780
H        3.09525688       8.07457844       3.02485124      -0.09549314      -0.12387105       0.27391968       0.38883787      -0.01912000      -0.20401123
H        2.56725296       6.48957012       2.20089762      -0.19388973       0.12237207      -0.03991617       0.16111144       0.57237798       0.10449000
H        1.48061234       7.90936858       2.37392165      -0.03429182       0.17760314      -0.03425318      -0.30868155       0.20071138      -0.47315836
C       -0.46977895       5.65288469       7.06728262       0.42473695      -0.05297845      -0.31861719      -1.23151326      -1.22392821       0.29855773
C       -0.50687604       4.30063356       6.30956161       0.89396297       0.60446464      -0.02522213       1.88914752      -0.23007473       1.45131600
O       -0.76568581       3.27864124       7.33607932      -0.41314457      -1.84992803       0.09591691       0.42942625      -0.03621393      -0.84493166
H       -0.45790567       2.44286045       6.93609361      -0.10673396       0.03390585      -0.00718356      -0.23541902      -0.22330908       0.36405617
H       -1.32077702       4.20224163       5.61370678       0.12021848       0.25243178      -0.02645455      -0.22207792       0.27169082      -0.94165117
H        0.51319454       3.96668430       5.88346633       0.23320230      -0.23995255      -0.03703894      -1.30458510       0.87520188       0.14905596
H       -0.24001959       6.47682485       6.42492731       0.06210386      -0.14203749       0.35244860       0.70310009       0.57343727      -0.54175019
H       -1.52209137       5.89541966       7.38646782       0.14319251       0.22725878       0.22243078       0.72800094      -0.33674857       0.08737608
H        0.19135349       5.54305104       7.95923053      -0.17648329      -0.28947637       0.22056916      -0.31867015       0.39428940      -0.52755088
C       10.40937993      10.89593763      10.61587535       0.57900688      -1.53669110       0.17395340      -0.71593624       0.69189340       0.96136761
C        9.32732110      10.39234862      11.59934668       0.21235535      -1.30555386       0.41428735      -0.95685738      -0.22580983      -0.17170186
O        8.33902733      11.36365479      11.96156740      -0.12435798      -0.41927935       0.79220824      -0.60568273      -1.26432931       0.29775289
H        7.48275625      10.80097539      12.25381526      -0.10106107      -0.25635113       0.06278988       1.38010693       1.38915622      -0.84961337
H        8.74855619       9.52326807      11.15377404       0.05640612       0.13883557      -0.01613038       0.68450254       0.52276230       0.34002212
H        9.78462837      10.04026608      12.57063873      -0.13209762       0.05151738       0.21246650      -0.16240147       0.15273167      -0.70666170
H       10.80544741      10.01813708      10.15267746       0.22168920       0.04465475      -0.08512669       0.69951755      -0.61612546      -0.46215853
H       10.20291396      11.64259328       9.83448792       0.15367219      -0.17442947      -0.06249447      -0.66561460      -0.25103083       0.20348310
H       11.13244841      11.40917082      11.24093552      -0.20445263      -0.06045004      -0.11128123       0.67641068      -0.13243406       0.14057843
C        6.47839643      10.86231624       2.38662882       0.88432391       0.41965768       0.44086671      -0.13716806       2.62974072       0.10085884
C        6.35769767      12.27473290       1.63261439       0.81349773       0.36890382       0.61854502      -1.44424725      -1.78068173       1.72792530
O        5.24254850      12.11143227       0.75965109       0.82386290       1.09912994       1.01742032      -0.31878245       0.45224130      -0.55482227
H        4.46406222      12.05491165       1.37853471      -0.02191694       0.29045078      -0.04541652       0.06040614      -0.16711478      -0.18102470
H        6.08412890      13.12613980       2.30783676      -0.28442507       0.35727115      -0.16495785       0.49171671      -0.49563718      -0.08669923
H        7.21156631      12.48535072       1.07037974       0.01023329      -0.02653705       0.03661926       1.61591518       0.43714330      -1.09893274
H        7.45137581      10.47223897       2.60899331      -0.11062500       0.02684949       0.26863266       1.00285721      -0.16348116      -0.48008108
H        6.12478427      11.10201857       3.38206902      -0.14957412       0.15484703      -0.06473914      -0.64391583      -0.13384944       0.51722085
H        5.84642501      10.13733381       1.90981614       0.07232128      -0.07471824       0.14526123      -0.14215727      -0.45398092      -0.16449782
C        7.90157782      13.40972195       5.76135976      -0.05013290      -0.08523153       0.85367920      -0.25740510      -0.69362980      -0.38117293
C        7.87998165      12.48671253       6.94110865       0.45895670       0.14177926      -0.47185252       0.90772527      -1.73009598      -0.00786045
O        8.80233607      12.90534641       7.98929880       0.49659901       1.36209687      -0.25362935       0.19537006       1.09908307      -1.46693397
H        8.95058250      12.24783130       8.65445646      -0.36276272       0.07241477       0.15996470       0.02323215      -1.13482392       0.92976362
H        6.93841795      12.43504005       7.44602994       0.03990290       0.05859859      -0.13312271      -1.29130220       0.15587388       0.16871458
H        8.05221191      11.39031616       6.61017530       0.07511862      -0.16717323       0.26217850       0.30384925       1.28951728       0.35561010
H        8.93866899      13.71745005       5.52626640      -0.05843370      -0.14350461       0.10240820      -0.52694625      -0.22045992      -0.20105805
H        7.33946447      12.91555778       4.92928785      -0.08513570       0.14922166      -0.01340992       0.74111342       0.17646980       0.19326553
H        7.29795389      14.27155578       5.95587905      -0.05985415      -0.32903145       0.24678367      -0.27740586       0.95563662       0.32656217
C        5.61284903       1.89540941      12.73421572      -0.69908326       0.34616076       0.34996333       1.54368031      -0.56653893      -1.61786163
C        5.87055836       3.25857444      13.26745950       1.60420436       0.04191270      -0.58997596      -1.17414820       1.06665802       0.54028946
O        4.54206374       3.76333030      13.73751121      -0.06821859      -0.27472069       0.03877910       0.98075879      -0.73933977       0.33135146
H        4.23726927       4.57718982      13.32740427       0.04115360       0.27905827      -0.02450169       0.23175552       0.55381161      -0.37959650
H        6.57373802       3.33554415      14.13653050      -0.12475804       0.17887213       0.04640354      -0.54973090      -0.21753214      -0.54958731
H        6.21727855       3.88886795      12.42706554       0.10022328      -0.22968283       0.27798694       0.07788979       0.18616252       0.28342357
H        5.24475851       2.01188813      11.67913369      -0.01283035       0.05166576      -0.12426053      -0.05160200      -0.24063993       0.72239190
H        6.62757181       1.42746081      12.59450773      -0.01281400       0.26964647      -0.15233482      -0.79166174      -0.07903378       0.27116188
H        4.93728366       1.25798403      13.28872978       0.13497516      -0.28329315       0.15839679      -0.12932457      -0.10935328       0.36728877
C        5.57820234       2.99016908       4.99255647      -1.31911131      -0.55517662       0.89472643      -1.32776320      -0.74871230      -1.95269692
C        5.73190298       3.50325471       3.52864193      -0.62192317       0.07800197      -0.03452337       0.09665729      -0.27466726      -0.15067957
O        4.81782938       2.89552415       2.61201345      -1.26884876       0.19244872      -1.07909475       0.46177265       0.51701057       0.37650365
H        4.84138615       3.36678728       1.73456093       0.09237329      -0.04886799      -0.11877106      -0.03340715      -0.34179038       0.39859778
H        5.58461323       4.61743686       3.57321686      -0.13065013      -0.08137972       0.23137592      -0.22690307      -0.73299515      -0.55954510
H        6.80085692       3.30454728       3.16149287      -0.14574556       0.17754665      -0.36414375      -0.95412421       0.21115515       0.40525997
H        4.60450807       3.17020994       5.45492165       0.10704785       0.06606544       0.30121618      -0.11422706       0.55856735      -0.18775062
H        5.67877528       1.90720091       5.09431873       0.03103299      -0.00171661       0.05696195       0.47071496      -0.14730185      -0.25047311
H        6.32889068       3.51480336       5.48649794      -0.15121804      -0.15728637       0.09433069       1.49187303       0.73554271       1.57952642
C        5.59797043       2.70260212       8.96475233      -0.52067664      -0.00799150      -0.19947906       0.77184409      -1.25878429       1.45010281
C        6.42039051       1.38496757       8.98402878       0.51273904      -0.51295459       0.02923528      -0.76554114      -0.22233303       0.33708894
O        7.72389123       1.58533877       8.47649238       0.51984282       0.97681326      -1.41441239       0.14245641      -0.24251604      -0.27563012
H        8.15728071       0.71143774       8.22029207       0.11678792       0.30596113       0.01274416      -0.47875381       0.49434912       0.37460780
H        6.45778018       0.96971353      10.02519483       0.04899147      -0.01427428       0.00428637       0.23718369       0.31599593      -0.19044545
H        5.87390174       0.56688617       8.44665970      -0.02501129      -0.30034419      -0.02915072       0.14225747       0.37463304      -0.18422334
H        5.67555789       3.15574949       8.02004549      -0.18268074      -0.14666832       0.11404481      -0.07712106       0.68831670      -1.61517048
H        4.54206322       2.51144634       9.21873521       0.00247195       0.02798764       0.03321448       0.20198104       0.06589571      -0.01739653
H        6.04928391       3.41378661       9.67544348      -0.33556673       0.03762579      -0.13953651      -0.19263373      -0.05992843       0.11880883
C        4.40799537       8.43296755       8.99294318       0.78882537       0.26821400      -0.51712713       0.01215058      -0.72530776      -0.76048446
C        4.40309575       6.91954659       8.73852327       0.74181780      -0.98101480      -0.57107637       2.75287580      -0.35327092       0.12124240
O        4.61018686       6.17812720      10.02338883      -0.90738556      -0.13281181       0.13282509      -0.56035757       0.30291614       0.03035813
H        5.07804801       5.30833857       9.99556010      -0.09207752      -0.20089264       0.04293973      -0.29664108       0.58113629      -0.58808541
H        3.55736660       6.55251293       8.13766456       0.19193282      -0.02416024      -0.17908199      -0.25446105      -0.00657421       0.37103054
H        5.34843201       6.65777384       8.18798566      -0.14631269      -0.04387838       0.09545473      -0.63199461       0.29234678      -0.03512131
H        3.39989191       8.64979164       9.25528691      -0.15423892       0.07274359       0.07231223      -1.22067177       0.47320127       0.07677402
H        4.96863699       8.75798070       9.85259364       0.07734845       0.17873052      -0.25103988       0.55714530      -0.25428620       0.36776432
H        4.71128942       9.06637348       8.12038368      -0.24647614       0.12253823       0.07938300      -0.26871976      -0.63706803       0.39294183
C        6.65272483       7.24523589      -0.41956879       0.53848352      -0.08625661       0.96741230       0.32609662      -0.78544432       0.51553261
C        6.15659997       6.80357889       0.96443654      -0.28170968       0.47451711       0.86542513      -1.28326488      -0.42750946      -0.97565913
O        6.15114829       7.94818489       1.75363851       0.00390760      -0.11867933       0.01297972       0.35874817       1.03094161       0.26122537
H        5.45350882       7.96263656       2.40742392       0.00665010      -0.21114965       0.08049915      -0.42591125      -0.17486854       0.77262568
H        5.09485771       6.33671445       0.94843346      -0.15000514       0.00188628       0.02905491       1.35275507       0.34475964      -0.06110984
H        6.89368470       6.13184536       1.37444368      -0.07724565       0.03923958      -0.01677208       0.32065642      -0.85295868       0.36633122
H        7.75921903       7.47982086      -0.35450073      -0.19078372      -0.08550190       0.12496906      -1.01612639      -0.32577091      -0.38900745
H        6.37918918       6.45019243      -1.13858992       0.08874310       0.07659015      -0.37434356       0.60153371       0.24679165       0.00158672
H        6.09271926       8.12719532      -0.67428342       0.01935255       0.19809945      -0.07059339      -0.09732711       0.76638067      -0.46075711
C        6.17443818       8.58566019       4.81512898       0.06515884      -1.03903645       0.70408401       0.68984973      -0.57888144      -0.41881537
C        5.73884475       7.10912245       4.85964634       0.78610961       0.62068657       0.49338484       1.25979364       0.33471680       0.87998372
O        6.86414627       6.18419862       4.72882105       0.14982500      -0.63193230       0.27079772      -0.47348657       0.84728771      -0.16395022
H        6.50706148       5.26526668       4.71670148      -0.22590799       0.04941415      -0.11362048       0.25973630       0.11454264       0.17776214
H        5.27105787       6.85872152       5.82434108      -0.10891364       0.12559950       0.00261728      -0.25173894       0.16694905      -0.05778273
H        5.01920133       7.02199682       4.05210174       0.07932718      -0.07746787      -0.00110671      -0.36030513      -0.54992527      -0.45930788
H        5.29105520       9.22380982       4.90637785       0.21710720       0.21219396       0.23680406      -0.04866868       0.11713110      -0.24181755
H        6.87821409       8.92397713       5.58616008      -0.11044650      -0.04011382       0.03392576      -0.04763946      -0.40568209       0.22333372
H        6.71399939       8.75033092       3.85379772      -0.04829150      -0.02383186       0.05277877      -0.51108545       0.10096897       0.39871246
C       13.38555301      13.36055682      12.57191131      -0.10843854       0.02124447       0.38841099       1.09493196       2.03039742       2.03811288
C       12.37697271      12.71630798      13.46451670       0.40686629       0.40365130       0.70604039      -0.46120387       0.39402094       0.44713917
O       12.69279890      11.35258122      13.61162985       0.14588937       0.39921567       0.50191950       0.24827899      -0.89029032      -0.11270320
H       12.09953244      10.82693528      14.18286131      -0.21272510       0.00713820       0.10096782      -0.08180945       0.40916458      -0.01617437
H       12.40468781      13.23578781      14.44726811       0.14212211       0.02571961       0.26763071      -0.03158553      -0.12215205       0.02343652
H       11.36224564      12.84400630      13.06461766       0.13831192       0.29884118       0.15184658      -0.33294550      -0.10364112      -0.09394129
H       13.04309628      14.36915918      12.31381267      -0.22373456       0.07940956       0.21384577      -0.26000571       0.11779725      -0.24126069
H       14.33089936      13.59026096      13.17149686       0.15233527       0.12948158      -0.02606605      -0.79351330      -0.48575172      -0.69127482
H       13.63430653      12.84238328      11.70138059       0.13853362       0.17187895      -0.06841081       0.39016795      -1.15267408      -1.52674162
C       10.65855769      11.69779439       2.93867701      -0.39242309      -0.52041854      -0.89938173       0.71230829       0.19328642      -0.02198380
C       10.76337928      10.15576052       2.98323575       0.76544257      -1.19906060      -0.28402246       0.69634426       0.66284752       0.24669018
O        9.92976516       9.79459106       4.03617921      -0.45177654       0.08997816       0.31816929      -0.78058958      -0.27466652       0.76254684
H        9.72870061       8.82128169       4.13892413      -0.21790752       0.05934069       0.16932728       0.36912572       0.08854300      -0.25423464
H       10.52741013       9.55082623       2.07860572      -0.06969661      -0.14009373      -0.05987404      -0.13846521       0.54245555      -0.10039729
H       11.83509707       9.90529842       3.20229587       0.15369875       0.21270051      -0.19696916      -0.25677511       0.03449994       0.06889648
H       11.53772288      12.17415265       2.43696683      -0.08190575       0.00612936       0.25531536      -0.18414772      -0.44026405       0.62441945
H        9.87280351      12.00207508       2.27670668       0.06477822       0.26776560       0.13008294      -1.00986516       0.03540292      -0.47433311
H       10.44114591      12.19614457       3.92779930       0.32533602       0.26416451      -0.11002257       0.41755134      -0.77862102      -0.82133383
C       12.34695706      14.04219671       4.84764071       0.05021163       0.84334316       0.69293379      -0.35363770       1.22381306      -0.68514055
C       12.07573519      13.31132223       6.13364414       0.45670139       0.00559012      -0.71924925       0.35693994      -0.11914373       0.42451656
O       10.73127205      13.64463726       6.35166147      -0.77208213       1.39928186      -0.95897469      -0.37897277       0.20057711       0.36270031
H       10.22399885      13.45766848       7.18353515       0.07069172      -0.15756411      -0.12132358       0.30408314      -0.48364028      -0.18744200
H       12.29544481      12.21580318       6.02475802      -0.42814589       0.06420130       0.03091887      -0.42657295       0.39843288       0.07865389
H       12.74218079      13.68377930       6.94950113       0.01861348      -0.23003611       0.23593389      -0.31790563      -0.08574598      -0.10290116
H       13.31231236      13.73440471       4.42783155      -0.02210692       0.11952300      -0.18468545       0.18090038       0.43414840       0.06327175
H       11.57838225      13.77845653       4.08450986      -0.42508004       0.28539387       0.21677332       0.43318787       0.20258686       0.38082504
H       12.19267395      15.18240400       5.00154253      -0.12300638       0.21965616       0.02683178       0.62751210      -1.64001024      -0.42668104