1944
Lattice="27.561639066689757 0.0 0.0 0.0 27.561639066689757 0.0 0.0 0.0 27.561639066689757" Properties=species:S:1:pos:R:3:momenta:R:3:forces:R:3 energy=-10215.179685918565 stress="0.001766647445037961 0.0007651408259334858 0.000289331470412435 0.0007651408259334858 0.0053006409434601665 -0.0009494440691923955 0.000289331470412435 -0.0009494440691923955 0.003530028215209313" pbc="T T T"
C        3.70115070      12.58143555      10.28715504       0.53969808      -0.72726346      -0.80117551       0.71147537       1.16010773       1.15931678
C        4.06231858      11.82084148      11.53364312      -0.12017982      -0.50008177       0.16178643       0.50599694      -2.24233031       0.77119488
O        4.96393640      12.55782362      12.39940647       0.11346608      -1.09854415       0.95997651      -0.86603773      -0.83175188       1.10129714
H        5.04946225      12.16628910      13.34142992      -0.03806171       0.02100124      -0.06732986      -0.19971636       0.21605362      -1.10638249
H        3.13010538      11.54292456      12.07463314      -0.33493005      -0.25381625      -0.22090221       0.19730899       0.25171721       0.12907240
H        4.55322195      10.77668465      11.32797526      -0.23910019       0.07264804       0.03724932      -0.52157068       1.50685322       0.05303874
H        4.32636162      12.25684507       9.46757599       0.05945273       0.13677254       0.00405858       0.26672786      -0.04025818      -0.46322760
H        2.65093049      12.42116606      10.03198039      -0.09954285      -0.22677463      -0.02864137      -0.12112355       0.15675551      -0.10560197
H        3.94835684      13.64591612      10.57019869       0.13494820       0.08137373       0.31706322      -0.54474461      -0.62183553      -0.81293029
C        2.36479610       9.75144509       0.68069082       0.22706999       0.07823657      -0.07317777      -2.52687836       0.00213143       1.34535468
C        2.27770693       9.82505743       2.22355044      -0.47405298       1.03740560       0.37068653      -0.14512195       0.78389448      -0.95338327
O        2.71747291      11.10190280       2.69554905       0.40231183       1.24361616      -0.41414829       0.43014231       0.05280683      -1.30115151
H        2.69390266      11.17497024       3.68018499       0.08266670       0.13154804      -0.17682469      -0.10477393      -0.39372048       0.89191711
H        1.23744137       9.74444444       2.53376896       0.07288340      -0.10923014      -0.04743986      -0.58355033      -0.19386484       0.03372942
H        2.79242180       8.97107255       2.64200862       0.16286252       0.33561413       0.06610092       0.66228110      -0.24669592       0.46251124
H        2.00750648       8.73658971       0.40681777      -0.23525219       0.11381215      -0.10470825       0.39774400       0.37047294      -0.14745440
H        1.58416661      10.46744932       0.30886469       0.35599154       0.07284131       0.13521553       0.66748834      -0.46435145      -0.09737084
H        3.31426534       9.99455743       0.28725949      -0.08160418      -0.13914604       0.23916657       1.16273820       0.12895800      -0.50846553
C        3.89385261       6.36391294       4.53651620       0.39846434       0.45550040      -0.18190753      -1.36139309      -2.28967929       0.97059560
C        4.53658272       7.59751663       4.96478542       0.60864587       0.76147626       0.70139687       1.82884347       1.85829079      -0.82526141
O        3.61320417       8.61679312       5.39452641       0.02475518      -0.65714213       0.31507761       0.26309875       0.48570007      -0.16212276
H        2.81591731       8.23890219       5.76782565       0.09333381       0.36371367      -0.09530263      -0.40280578      -0.85823393       0.17259641
H        5.26435470       7.44310935       5.80343035      -0.02414959      -0.03641723       0.18867742      -0.31109199       0.16785519      -0.63948840
H        5.05019176       8.04622761       4.04225560      -0.16642836       0.51150521       0.18483753      -0.22172686      -0.41835344       1.24003506
H        3.03589504       6.51909249       3.85708362       0.09633092       0.09729482       0.08065655       0.29608655      -0.04398324      -0.04069672
H        4.60672343       5.61075282       4.10397244       0.16425091      -0.10212326       0.27363664      -0.59454721       0.53622442       0.21999072
H        3.46016824       5.88654378       5.47670969      -0.13408701       0.34168588       0.01328934       0.21785267       0.12947097      -0.91665208
C        0.21524957       1.95882558      11.60219380      -1.32717113       0.73783440       1.04204559      -1.19156456      -1.07844734       1.07474792
C        0.56730171       3.29826845      10.97080395       0.37657498       0.26078920      -0.40959662       1.28118968      -1.59590530      -0.71831387
O       -0.26413900       4.28018059      11.42210251      -0.02733239       1.26995832       0.00188357      -1.82212758       2.30481791      -0.66038293
H       -0.20126825       5.16045255      10.87140938      -0.00566848      -0.12135355      -0.06530559       0.60312456      -1.24339128       0.69293207
H        1.58493061       3.55890068      11.32962730      -0.07769971       0.05313705       0.01740719       0.06700709      -0.12172946      -0.45078260
H        0.59536052       3.11772123       9.84590489       0.04640392       0.10031491       0.25230658      -0.12589683       0.52088422       0.79835087
H        0.94026445       1.17008012      11.39082102      -0.43879371       0.02979569      -0.16764429       0.39852789       0.03467352      -0.42524061
H        0.21795396       1.99080270      12.72770703       0.18863840       0.04118004      -0.06800552      -0.24797501       0.29276597      -0.82782894
H       -0.78147149       1.49913007      11.28053279      -0.23681579       0.15507645       0.14226718       1.01151812       0.91105610       0.26994035
C       -1.19905341       6.37143291       1.81689753      -0.06331563      -0.26781443       0.41798977      -0.01830221      -0.40445703      -1.04364681
C       -0.73843551       5.92398529       0.41925876       0.20351266       0.12957867       0.28108948      -2.37009120       2.08036900      -0.01377554
O       -1.54028267       4.83000833       0.02633606       0.28083937       0.28480447      -0.03970755       0.81937373       0.21005304       0.03520894
H       -1.24977051       4.46548090      -0.83876501       0.11169905       0.13170411      -0.20503249       0.13755439       0.13033186      -0.27090558
H       -0.97182590       6.88555734      -0.22935909      -0.11060445      -0.03907237      -0.07821697       0.63981891      -1.66811764       0.59830046
H        0.30586869       5.72740439       0.53858006       0.01056910       0.17438213      -0.04694628       1.05876422      -0.41248283      -0.47839311
H       -1.26316819       5.53454978       2.48053701       0.27569371      -0.16730548      -0.08741664      -0.56850243      -0.74517834       0.55298752
H       -0.39293776       6.93586247       2.19851828       0.06715639      -0.23501295      -0.01579070       1.02526689       1.17543793       0.56766444
H       -2.09137929       6.99519511       1.78471432      -0.00741454       0.05652797       0.26559837      -0.23426902      -0.03565034       0.06400424
C        3.55829054       0.19150169       0.77850895       0.64282481       0.86153135       0.09859534      -1.35031879       1.38529682       0.45770338
C        3.27658824       0.43702660       2.31770134      -0.60096711      -0.92976450       0.14328389       1.07201612       0.03827045      -2.30726051
O        3.76799695      -0.71583669       2.94590627      -1.06927435      -0.33726578      -0.80837449       0.14421304      -0.57905346      -0.52164590
H        3.97835502      -0.54065173       3.89165755      -0.00921934      -0.27044372      -0.01734872       0.20377284       0.03437307       0.93706733
H        3.91403142       1.34262066       2.46893964      -0.32397863      -0.05095934       0.14370280      -0.39944312      -0.20738283       0.63862979
H        2.22705940       0.57419653       2.59754908       0.01716344      -0.12290341      -0.15053902      -0.14746466       0.26283330      -0.19160929
H        3.00660661       0.95767447       0.14554710       0.09338903      -0.00847304      -0.03927545       0.51534516      -0.62035620       0.67252284
H        4.63110870       0.31177715       0.55761535      -0.05956574      -0.22321053      -0.13828314      -0.22769207      -0.25682992       0.03320610
H        3.16962426      -0.77887113       0.49869536       0.02790402       0.18980626       0.03285698       0.29051703      -0.35484874      -0.20522569
C       -1.67798485       6.98174647      10.13754204       0.06084507      -0.76322501       0.27718493       0.47025806       0.84339386      -0.44265065
C       -0.20997872       7.37522194      10.07596133       1.31316645       0.40100447       0.52171913       0.64949811       1.12401593       1.39590812
O        0.79067900       6.37855156      10.09145596       0.14910007      -0.26207793      -0.16833897      -2.84556937      -1.51139605      -0.68169802
H        1.66172959       6.60537363      10.38806745      -0.13469868      -0.46344225      -0.16810781       2.03950810       0.78021491       0.50148326
H        0.06091476       8.07707161       9.26859113      -0.18706584       0.03998524       0.08532863      -0.29171461      -0.01694674      -0.02530558
H       -0.18753838       7.91634872      11.05647521      -0.16404422      -0.25580203       0.12775663       0.61281127       0.17553987      -0.39469829
H       -1.84043182       6.03088875       9.68701107       0.01980853       0.23264869       0.14227535      -0.38172984      -0.93666440      -0.42628050
H       -2.02804988       6.95892390      11.19389944      -0.09442668      -0.12774818      -0.00569061      -0.03168865       0.06205615      -0.59880060
H       -2.17682082       7.78780430       9.53753418      -0.04227969       0.00151891      -0.02031744      -0.21676119      -0.62379783       0.65717298
C        3.13025758       3.80561234       8.06164285      -0.18999740       0.08968078      -0.11047031       0.86336219      -1.60151923       1.45161390
C        2.07398009       3.84332708       7.05260971      -0.15147594       0.00782811       1.04345759      -1.22797942       2.27133179      -1.23579502
O        1.60516201       5.20878993       6.87261056      -0.17957271       1.25030080       0.06612741      -0.90863967      -0.43734276      -0.35179305
H        0.64217239       5.20763595       6.51272620       0.02891828      -0.19186515       0.20436081       0.92102617       0.31286499       0.55579406
H        2.36520039       3.58947979       6.03321201      -0.01348390      -0.10732507       0.18296587       0.34630799      -0.65783840      -0.22940308
H        1.22115514       3.26420493       7.35238504      -0.03196731       0.18753993       0.02629633      -0.69555330      -0.74991208       0.20112534
H        2.95756766       4.49584965       8.91209015      -0.36855991       0.09417979       0.12614265       0.27890158      -0.19679220      -0.41330448
H        3.12764543       2.74656703       8.44928147       0.06448284      -0.03213644       0.03179287      -0.00918158       0.75847405       0.02960988
H        4.12060090       3.87233741       7.61017236      -0.07065035       0.27094792       0.11837495       0.26688036       0.49625570       0.01741100
C        0.01376218       7.80681934       5.83153913      -1.23351629       0.01378522      -0.05939516      -0.06766476      -1.20626080      -1.40056515
C       -1.27333502       7.07799823       6.26038531      -0.65812839       0.05119380       0.02767605       2.38812971      -0.68221956      -0.21146668
O       -0.98210834       5.66034385       6.29394927       0.32878773       0.53802121       0.81679838       0.89845663       1.29023898       0.32566795
H       -1.78039231       5.12782657       6.24319391      -0.12615416      -0.07452282       0.02074408      -1.17698884      -0.74620676      -0.11958660
H       -1.64118000       7.48274634       7.18993550       0.01450262       0.16311677      -0.05809658      -0.08618090      -0.11078005       0.97000223
H       -2.02477270       7.29177676       5.55513152       0.04452656       0.15168232      -0.13954444      -1.30889297       0.06695075      -1.37258899
H       -0.20295966       8.53743543       5.06177039       0.16304724      -0.16661835      -0.05119979      -0.30450571       0.86492890       0.18925521
H        0.56579795       8.21245859       6.63566025       0.09227630       0.14782522      -0.03607459       0.37778848       0.88266152       1.19787419
H        0.77476212       7.22174468       5.28408921       0.02008422      -0.12518686      -0.15063272      -0.47278711      -0.57566774       0.34883827
C        8.87982672      14.07593507      10.29601816       0.14094422       0.71873012      -0.61192913       0.76331890      -0.25929391      -1.28425980
C        7.58619945      13.96715838      10.99515775       0.46363480       1.09657052      -1.00994607      -1.14991391      -0.89696664       0.96931225
O        6.81716558      12.76887409      10.71578722       0.16676330       0.02723851       0.49860868       2.23291683       0.93892914      -1.13740969
H        6.08012267      12.77578396      11.34507755       0.14494291      -0.04761060      -0.16434060      -1.01749635      -0.20140933       0.79895991
H        7.71566147      14.07876262      12.10345550      -0.24190225       0.00004081      -0.34355244      -0.07950559      -0.20235401      -0.47057205
H        6.98629235      14.81296898      10.66578290      -0.38598738       0.23677641      -0.03583289      -0.35268226       0.33711445      -0.05762646
H        9.46713211      13.14982331      10.14505689      -0.02874992      -0.02448143       0.02822252      -0.25304464       0.17546842       0.55085212
H        8.63021986      14.36244872       9.24061898      -0.04393631      -0.01133391       0.28273637       0.39555511       0.33697644       0.59644324
H        9.46811995      14.83453692      10.84674032       0.05886430       0.16334220      -0.24609497       0.07179978      -0.04777917      -0.50118643
C        7.06494231      10.35405553       1.39816598       0.34490752       0.03333251      -0.58382530       1.52524519       1.36885965      -0.84764558
C        5.85037075      10.92171032       2.02796778       0.30610902       0.34830404       0.50968305      -0.27290037      -0.21804488       0.93696117
O        4.98348700      11.43040987       0.97558912       0.94643910       0.98398559       0.40199661       0.33044770      -0.34699839       0.87121361
H        4.14037587      11.56684927       1.44544974      -0.13629502       0.05268255       0.23932741      -0.75490874       0.01158535      -0.00160620
H        5.38307066      10.10181936       2.62565296       0.11121977       0.07042425      -0.13047493      -0.29108918       0.30941793      -0.30212557
H        6.10996206      11.72124654       2.76207218      -0.01132790       0.03713139      -0.18862644      -0.14628603       0.02010230      -0.35745060
H        7.46254029      11.23381360       0.77345775       0.12851670      -0.01136623       0.00805897      -0.00550703      -1.47963679       0.72880226
H        7.83871997      10.03388827       2.13947034      -0.16461532       0.00952944      -0.01415916      -0.64254260       0.11911549      -0.49611989
H        6.77587551       9.54814373       0.71241542      -0.13625171       0.07674732       0.29544539       0.31502771      -0.14479437       0.11436205
C        9.27073891       9.93552301       7.51043826       0.77041907       0.43314517       0.43086092      -0.43369463      -0.42608702       1.08850884
C        8.36690495      10.40945524       8.63675976      -0.46091499       0.77535662       0.47324043       1.52691865       1.05610466       0.00594599
O        8.14278067      11.81186205       8.54003015       0.56710572       0.23150311       0.87664036      -0.07733930      -0.04874320      -0.47717193
H        7.57786644      12.10108050       9.29896018       0.05607634       0.09040958      -0.07966865      -0.01460132       0.20220762       0.56062615
H        7.42974999       9.93374644       8.66701723       0.04466496       0.10427624       0.25594925      -1.60989463      -1.02328622      -0.18698245
H        8.81679766      10.25394400       9.61305771      -0.02288358       0.04434281      -0.12275746       0.41964933      -0.24294548       0.38501048
H        8.76796251      10.14483675       6.61345403       0.12934028      -0.05121520      -0.08732890      -0.92823708       0.19807972      -1.61813033
H       10.19469155      10.48293647       7.42424687      -0.12234465       0.06037970      -0.08784682       0.70260555       0.09447484       0.40080285
H        9.41036981       8.84508919       7.55318263      -0.27155059       0.24385063       0.25486287       0.28317297       0.11604756       0.07736613
C        3.79451637       3.55097709      12.88977995      -0.42114257      -0.15695627       0.06857731       0.62910509       0.67353344       1.87533998
C        4.94594567       4.50544634      13.33378063      -0.58971331      -0.52177041      -0.04083529      -1.25981975       0.27323163       0.26202211
O        4.49562429       5.87856398      13.20924760       0.43695331       0.47009475      -0.94282793      -0.13715486       0.66948158       0.59996629
H        4.73947087       6.45613998      14.01786640       0.24501336       0.03081648       0.17027017       0.15437187      -0.58784574      -0.85282868
H        5.19668955       4.42525488      14.42527393      -0.03808034      -0.04412544      -0.36021619       0.19481915      -0.60629219      -0.90531754
H        5.79216038       4.40155088      12.62353076      -0.20397700       0.13620982       0.16876071      -0.06526129      -0.13876458       0.51194471
H        3.88373909       3.32803750      11.86197651      -0.12653376       0.21113688      -0.24399495       0.15693262      -0.26907277      -1.30824459
H        3.80316287       2.62958353      13.47659111       0.01436986      -0.25879394       0.15105436       0.45775500      -0.35822803      -0.06156281
H        2.79023783       3.91669445      13.07835057      -0.04989837      -0.19814238       0.33825324      -0.05776523       0.52019501      -0.02638147
C        7.94154297       2.28792769      -0.65723026       0.49972876      -0.37115371       0.08024247       1.46239090       0.39541182      -0.04294544
C        6.90042604       2.92141486      -1.57173521      -0.84618219      -0.38227913       0.57128786      -0.52407455      -0.33188444      -0.24650148
O        6.61389673       4.23687482      -1.05363403      -0.11637618       1.10361453      -1.09518746      -0.63722420       0.14783265      -0.72868967
H        5.86195196       4.64878325      -1.59764501      -0.23745734      -0.04477086      -0.02715719       0.46023613      -0.66676313       0.83940184
H        7.11192803       3.03259433      -2.69789778       0.17782217      -0.07443004      -0.10854776       0.06762514      -0.36289415       1.36623025
H        6.02762160       2.20592973      -1.42808142       0.30320425       0.02567416      -0.26502520       0.23554245       0.78649801      -0.39064100
H        8.03828114       2.87132225       0.25807702       0.10206142       0.35005769       0.03504237      -0.03162688       0.16897768       0.20511150
H        7.76724686       1.27220626      -0.29870346       0.00955863      -0.26764632       0.07689955      -0.30825704      -0.21540850      -0.37075883
H        8.97657958       2.27994587      -1.07961497       0.17100894      -0.27337865       0.12232452      -0.66376209      -0.00094920      -0.08725808
C        6.28380504       2.86925787       5.28467925       0.16675185       0.00367240      -0.03888094       0.62952769       0.64016992      -0.12692121
C        6.78039207       2.10726529       6.50079235       0.07631233      -0.97453890      -0.22399339       0.90584618       0.81013179       0.14612906
O        6.15743492       0.84468924       6.57454277      -0.57688246       1.83675900       0.03270066       0.49664471       0.35094464       0.91129434
H        6.51627863       0.29565354       7.33156227       0.04633536       0.08058534       0.04579941       0.24689785       0.34854379      -0.53733891
H        7.89055265       1.93417959       6.40423194      -0.01563772      -0.33414979       0.01182942      -0.66851628       0.25889006       0.17126763
H        6.59741056       2.77779864       7.39712084       0.00412324       0.06562101      -0.00547192       0.04071570      -0.79435778      -0.34821710
H        5.21620261       2.77322268       5.15063830       0.27785368       0.07530570       0.21367620      -0.51573837      -0.02343771      -0.06891832
H        6.54325061       3.95986749       5.33381875       0.06257204       0.03274650      -0.04762275      -0.19491668      -0.67537284       0.18131369
H        6.80160529       2.51535779       4.38817938      -0.21049838      -0.06009253       0.35805652       0.02250550      -0.15300564      -0.16137592
C        3.89504042       7.09751766       8.33667246      -0.56577723      -0.28408588       0.14864076      -1.08802140       0.92448360      -0.25793314
C        4.27123388       7.24582911       9.80880750      -0.03826214      -0.33697131      -0.12122555      -1.09216928      -0.72999907      -0.40846643
O        3.44608528       6.37700651      10.67338066       0.87502865       0.05876548       0.17028243       0.52266437       0.87134290      -0.69359499
H        3.85556503       6.32500834      11.57013886      -0.03617865       0.13580960       0.12901205       0.05896782      -0.08692127       0.10799882
H        5.31958189       6.94929241       9.87353010      -0.25673782      -0.07138533      -0.05477100       0.35559392       0.04504678       0.41791832
H        4.09492889       8.30887532       9.99050703      -0.09182892      -0.02058432       0.13572016       0.07049303       0.21146552       0.70747310
H        4.22079554       8.03440453       7.76414865       0.01339833      -0.14007606      -0.02154916      -0.62178624      -1.00021434       0.76681483
H        4.49913559       6.30588052       7.91954367       0.07597835       0.05415046       0.00529047       0.07897199      -0.58044833      -0.34601799
H        2.77819481       6.86931314       8.18878140       0.03093862      -0.17577675       0.08116472       1.53589582       0.31435585       0.05122967
C        9.15448222       7.24094268      -2.21480393      -0.55268748      -0.25172502       0.14401280      -1.01970768      -1.20258713      -1.68327415
C        8.09097211       7.33571988      -1.16833734      -0.14798546      -0.22139997       0.71019468      -1.37488902      -0.25993329       1.32823527
O        8.68007130       7.25325909       0.13055501      -0.48744095      -0.13228135      -0.54846316       1.22591281       0.63632250      -0.83691615
H        8.13538897       6.78619818       0.75156427       0.08990508       0.08996227       0.30461755      -0.94628638      -1.17086220       1.13456285
H        7.54800876       8.29279297      -1.08003755       0.15495284      -0.30322792       0.15322030       0.02175467       0.17206040      -0.80322617
H        7.24505810       6.57348145      -1.29777061      -0.04253502      -0.16974617       0.09140996       1.10422444       0.43872702       0.14276055
H        9.93081950       6.47830413      -1.97315446       0.00467168      -0.18590692       0.00747277      -0.15812221       0.78821659       0.03824179
H        8.59049930       6.78410735      -3.11165601      -0.11687395      -0.19871782       0.02660010       0.92344165       0.91503501       0.82336855
H        9.48723256       8.25873687      -2.45758554       0.43284566      -0.07725367      -0.16481555       0.33999622      -0.35223207      -0.17997988
C        7.67884679       7.15765888       3.37537425       0.21656973      -0.26112918       0.19185354      -2.13689613       1.03381419      -3.00657296
C        6.75367573       6.06344107       2.62972769      -0.36592165      -0.06011320      -0.54688004       1.33349562       0.79285008       1.81231129
O        7.56100311       5.26663978       1.72385823       0.71606314       0.43404001      -0.20017656      -0.98568529       0.63814276       0.45408699
H        6.93955606       4.83145913       1.10428777       0.04355015      -0.13765283       0.00064777       0.20391305      -0.17286769      -0.22953975
H        6.25714982       5.44335677       3.42796346      -0.01672423       0.22555515       0.10730970       0.73859143      -0.12638429      -0.48708007
H        5.90550490       6.58061434       2.17820349       0.07469357      -0.07704293      -0.19079523      -0.14241008       0.26358712      -0.74444962
H        7.12317061       7.72546539       4.15668799       0.23409958       0.07631027       0.01075616       0.22135882      -0.50259018      -0.35866341
H        8.56070378       6.72115256       3.77152392       0.05169567      -0.07074423      -0.07827746       1.03169930      -0.29704526       0.32587075
H        7.90441391       7.96763083       2.52846101      -0.03081360       0.03930915      -0.08815296      -0.01541491      -1.62133992       1.75817811
C       11.57386127      13.87713010      13.03604781       0.11577734      -0.81963221      -0.04200583       0.60533601       1.85737038      -0.94623375
C       12.35754509      14.00212888      11.71537737      -0.05275990       0.27691093       0.00765229       0.14162922      -0.20171340      -0.21491972
O       12.80072259      15.32412376      11.47001234       1.49261617       0.17953857       0.61690983      -0.69457901       0.44116881       0.20961867
H       13.70037291      15.63494384      11.03398770      -0.19699642      -0.19564886      -0.09349125      -0.51797664      -0.39056981       0.38879472
H       13.24733558      13.38870202      11.66014220       0.00011578       0.02457403      -0.22636711       0.48088682      -0.53690994       0.43562311
H       11.74882809      13.58844500      10.87407281       0.05455511      -0.00313473      -0.26223866      -0.09500977       0.49206522       0.18885937
H       10.67109018      14.50087687      12.99359484       0.11569729      -0.02590566      -0.07184766       0.08897779      -0.09259944      -0.10526016
H       11.26482908      12.88133571      13.19121759       0.01067252      -0.03152270      -0.33983001      -0.31190076      -1.47103655       0.34886563
H       12.16602115      14.25082561      13.88042599      -0.06925551      -0.21046137       0.20559905       0.01297965      -0.21188308      -0.00601550
C       10.71153115      11.76688756       4.38967391      -0.16841253      -0.14240597      -1.10522150       0.79393297       2.23573017      -0.82984358
C       10.66665548      10.47644081       3.68865533       0.39083932      -0.16587360       0.23139106      -1.18628275      -1.77280056      -0.01299552
O       11.53790350      10.23014146       2.62349940      -0.38853740       0.67917348      -0.55405626       0.91780472       0.17231220      -0.34939322
H       11.44100422       9.33857077       2.20602524       0.00295176       0.06766677       0.07230854      -0.18804842      -0.10882777      -0.05235856
H       10.78875706       9.65585868       4.42769390       0.14511343       0.25984530      -0.04093308      -0.09449638       0.08852818      -0.24906616
H        9.64091906      10.43057211       3.27940137      -0.00673314      -0.14849736       0.09433760      -0.07765092      -0.25866863       0.07618841
H       11.69538778      12.29843872       4.35925278       0.03567994       0.12921406       0.14525789      -0.38358787      -0.70624620       0.41648498
H       10.02794178      12.51785275       3.94902389       0.09565616      -0.06650765      -0.11633930      -0.02201717      -0.28945398      -0.27034953
H       10.27482611      11.61479161       5.35694593      -0.07808722       0.11559823      -0.23323809       0.16545673       0.04054930       1.06249368
C       12.08801930      14.76713861       7.95138397       0.65408884       0.43399342       0.27648009      -0.98237795       2.35436749       0.41795167
C       10.89349659      14.12958568       7.27577922       0.16748420       0.41270743       0.85182031       1.75294435      -1.83564281      -0.61894476
O        9.81301078      14.86897613       7.03213414      -0.23197717       0.72671196       0.76808511      -1.60266292       2.07211637      -0.50294268
H        8.89277629      14.42849396       7.11050416      -0.00572687       0.22055915      -0.24766740       0.39137477       0.03720238      -0.21326348
H       11.38225933      13.75304994       6.31676098      -0.03796779       0.33102758       0.08439250      -0.60331160       0.10183377       0.36902112
H       10.54216036      13.24493999       7.80152906      -0.03941921       0.11617234       0.31184253       0.18577653      -0.62836570       0.39750695
H       12.83089465      14.04456649       8.07764037      -0.14567593      -0.10805101      -0.05704720       1.55888653      -1.41220701      -0.23098464
H       12.48656709      15.67483432       7.41400007       0.11010393       0.16962036      -0.19434594      -0.26313922      -0.82284427       0.32309014
H       11.88217671      15.06442706       8.98890057      -0.07139914       0.28282777       0.10619923      -0.27572682       0.26629806      -0.05262737