648
Lattice="18.636975354596977 0.0 0.0 0.0 18.636975354596977 0.0 0.0 0.0 18.636975354596977" Properties=species:S:1:pos:R:3:momenta:R:3:forces:R:3 energy=-90.04964303863204 pbc="T T T"
O       -0.41268419       6.86894864      -0.85224884      -0.08051043       0.96990053      -1.06364096       0.41685601       0.00331696      -1.42494750
H        0.06111897       7.14322863      -0.06706549       0.12393734      -0.06913938      -0.09936414       0.01137367       0.13651356       0.86457389
H       -1.14309458       6.34616770      -0.52144286       0.14001410      -0.12596115      -0.04229580      -0.48115981      -0.36279226       0.80977471
O        1.25328963      -2.03508338       2.25943877       0.00610111       0.54599038       0.42004230      -0.29257645       1.54236432       0.89836147
H        1.45071801      -2.59758004       1.51053865      -0.14092301       0.07405688      -0.04057427       0.10201941      -1.11103912      -0.60572887
H        1.52500590      -2.54625136       3.02174409      -0.12301836      -0.12252623      -0.03477741       0.18424858      -0.34002370      -0.01308645
O        2.14391603       0.54111687      12.49456866      -0.02470326       0.42680022       1.28062230      -0.42356147       1.15975063      -0.53859502
H        3.07804342       0.33370610      12.46969618       0.00763084       0.09224020      -0.11922593       0.32044743      -0.33436592       0.11284299
H        1.74134023      -0.21555135      12.92073502       0.16581679       0.08283196       0.33811852       0.05253267      -0.79395192       0.48324439
O       -2.65287861       0.43458547       9.08045718       0.35144304       0.96242574       0.07572820      -0.31376320      -0.24840357      -0.82798932
H       -2.05459347       1.18046764       9.03633786       0.25606181      -0.12629933       0.01652083       0.29274617       0.10362390       0.24804681
H       -2.78680210       0.28942982      10.01706071      -0.03128325       0.09421296       0.00233563       0.12252227       0.09239143       0.69238292
O        4.15550025       1.29926974       6.12240866       0.10383927      -0.66230694      -0.07629109       0.73737604      -0.58316798       0.46587200
H        4.13165866       2.08804631       6.66416039      -0.07681862       0.03868933      -0.12556069      -0.13903013       0.65233063       0.10427202
H        3.81686814       1.58139038       5.27272161       0.13931648      -0.16735239      -0.09943307      -0.37077068       0.63477722      -0.55891443
O        6.01404846       7.47968368      13.31024935      -1.11089781       0.89596227       0.56017338      -0.96008916      -0.77687332      -0.77706532
H        6.86715302       7.18422821      12.99220768      -0.13105298      -0.20153044       0.11116110       0.84260813       0.11680711       0.14829941
H        6.21751234       8.19139335      13.91712960       0.08420932       0.08220686      -0.04661133       0.26122864       0.35260007       0.50829663
O       -5.08805552       9.93131300       1.09641602      -0.44922585      -0.54049311      -0.16009052      -0.07411938      -0.07267616       1.68095574
H       -5.54478824      10.69524798       0.74423650      -0.13247814      -0.12383145      -0.06972794      -0.35902065       0.15108159      -0.57598574
H       -4.56655843       9.60443792       0.36332304       0.08079567       0.02937925       0.03923913       0.29800318      -0.11933660      -0.94247508
O       -1.76378936      -3.18321713       1.53247490      -0.40987705       0.04811045      -0.44469967      -0.00486212      -1.63128477       0.47750873
H       -2.12568742      -3.10732777       0.64958055      -0.10646896       0.01808572       0.00633258      -0.11990693       0.53399328      -0.36202414
H       -1.51285729      -2.28965893       1.76660879      -0.16984731       0.02709232       0.03451069       0.06505998       1.08240709      -0.09988625
O       -1.72411396       5.41458863       5.25599849      -0.40304483      -0.04933740       0.02587009      -0.42520717       0.84157357       1.03203375
H       -1.55585033       4.48135142       5.38633456       0.00102358      -0.00449500      -0.04240242       0.33624838      -0.75771176      -0.35254758
H       -1.45257445       5.58370052       4.35383481       0.06331176       0.06848977       0.04175021       0.31216488      -0.22675695      -0.58334508
O       -0.85907132       2.76480335      -1.64850458       0.36674184      -0.66259095      -0.46753854      -1.22317772      -0.49098190       0.76397944
H       -0.58245601       2.90899402      -2.55344925       0.14677843      -0.05951607       0.00551480       0.57885330       0.31154103      -0.59989203
H       -0.09395599       2.99950434      -1.12338953      -0.10843849       0.14237226       0.07991764       0.64911558       0.11142546      -0.07505275
O       10.78082569       9.99519077      -2.05796554       0.79897965      -0.43130481      -0.44019346      -0.39083956       0.01428454       0.42612836
H       10.89636991       9.06521093      -2.25294978       0.23348063      -0.00719412      -0.01450116       0.06005313      -0.19246922      -0.21465551
H       10.60996441      10.39933752      -2.90867328      -0.20949146      -0.10019442      -0.01023798       0.12427500      -0.09948278      -0.42044300
O        4.02617480      -1.59290449      10.74207652       0.65801776      -0.03946595       0.67606972      -0.57538407       0.72555353      -0.12059661
H        4.10506631      -2.51155911      10.48501302       0.19904287       0.00421623       0.06700392       0.36672788      -0.55162469      -0.10222432
H        4.80764501      -1.42291624      11.26804243       0.00601596       0.14207651       0.04853205       0.22918505      -0.19339906       0.18855316
O       -0.02180611       5.30196273       2.78829000      -1.33045110       0.29698765      -0.63008113      -1.28920131       0.68675996       0.22550414
H       -0.15124309       4.64243614       2.10674574       0.12245897      -0.07596477       0.01274338       0.27984611      -0.34014838      -0.09145361
H        0.90653388       5.23665222       3.01223474      -0.11099297       0.17737998       0.11920361       0.97864300      -0.19122810      -0.06269238
O        4.84593306       1.29941621       2.12789888      -0.10159927       0.01673859       0.52196498      -0.55110851       0.81406839       1.15382813
H        5.05809903       1.50954085       1.21846769      -0.13360015       0.00418694       0.00393466       0.17507377      -0.40417815      -0.73949663
H        5.32148337       0.48755187       2.30385352      -0.00770429      -0.01690963      -0.04648009       0.10393835      -0.48782962      -0.12961123
O        0.90396128       0.97334022       4.69295446       0.87554140       0.36241318      -0.47979310      -0.34308819      -1.15161731      -0.06006846
H        0.56381176       1.59096279       5.34031255       0.00979380       0.05221208      -0.08209668      -0.26197770       0.54282829       0.10283880
H        1.65110387       1.42464885       4.30010548       0.00590784       0.05526497      -0.08664665       0.54822312       0.65075194      -0.14367164
O        0.19922837       8.48344497       4.47481376      -0.84773935      -0.93850157      -0.27403511      -0.45388277      -1.08052449       1.35514350
H       -0.19899776       9.19695297       3.97626174       0.02088147      -0.03044119      -0.03555020      -0.26686587       0.78864609      -0.57460866
H        0.95614990       8.21871697       3.95210857      -0.01104542      -0.07024720       0.04971430       0.55128827       0.07413120      -0.30659491
O        5.24107129       9.53264494       5.09541386      -0.24441759       0.96627991       0.55437523       0.52740032       0.04278241      -0.60685091
H        4.70189892      10.31840264       5.18546850      -0.11095993      -0.00708179       0.05577510      -0.13754468       0.29951351       0.25363529
H        4.78030952       8.86577807       5.60454940      -0.06764559      -0.07619712      -0.19189767      -0.34117232      -0.39569427       0.38236065
O        6.30381765       7.21271087       8.37707729       0.09358922      -1.78432569      -0.33091004       0.17550702      -0.38967963       0.60413036
H        6.85183642       7.97566332       8.19320007      -0.04106692      -0.08300085      -0.03875064       0.16825975       0.52664317      -0.44713210
H        5.42062025       7.48632788       8.12943255      -0.01691139      -0.15976707       0.00817995      -0.19786756       0.21269167      -0.31690243
O        6.64255328       7.90104703      -0.96941389      -0.93617322      -1.30935776      -0.16631588      -0.01115647       1.18884216      -0.52890529
H        6.84716198       6.98705718      -1.16687193       0.15394161      -0.02326589      -0.06400072      -0.02749262      -0.53726855       0.22998377
H        6.49484199       7.91501906      -0.02378289      -0.04163711      -0.16835170      -0.00650055      -0.19512980      -0.31032499       0.35890874
O        6.00980973      -0.45798115       7.67523772       0.05665661       0.15783891      -0.10228414       1.11095369      -0.53524933       0.01900034
H        5.77281408       0.24153546       7.06635233      -0.09494018      -0.13871677      -0.13889061      -0.48334200       0.26668373      -0.17801076
H        5.18435513      -0.90669865       7.85829278       0.08131506      -0.12638244       0.00996108      -0.60655417       0.15102035      -0.07050626
O       10.37089336       3.54460736       7.47890072      -0.32908399      -0.25488073       1.29222599       1.00900830       0.91637392       0.35968646
H        9.66664532       3.02849071       7.87118908      -0.00961450      -0.02467670       0.09003805      -0.71676137      -0.72313058       0.14843162
H       10.12471946       3.62520019       6.55741548       0.04280183      -0.14636098       0.05304568      -0.23678890      -0.45029419      -0.41401880
O        9.11225162       6.69754441      -2.60006301       0.87579168      -1.24947651      -1.08630995      -0.67593528       1.18691563      -0.84673455
H        9.86944443       6.49654502      -2.05007198      -0.12414636      -0.17246477       0.14418187       0.52398243      -0.70099910       0.48140271
H        8.66067130       5.85976481      -2.70220209      -0.08353113      -0.00018999      -0.09932133       0.09069321      -0.54558667      -0.08454694
O       10.00268677       5.15673577       1.61868424       0.23291659       0.78105870       0.27099358       0.03564475      -1.52718708      -0.20330441
H       10.59628981       5.86668731       1.86329841       0.00127678       0.14935031      -0.24105491       0.56336086       0.84695305       0.23222680
H        9.12730171       5.53137635       1.71654785       0.00325654       0.01486751       0.04640784      -0.61665575       0.86444950       0.14456279
O        7.12485238       0.26645507      10.52948676      -0.16736790       0.46555475       1.00419607      -0.25597241       0.92111316      -0.34006617
H        7.02053484      -0.65253966      10.28291347      -0.02702439       0.00809812       0.14937953       0.19243183      -0.58537450       0.05278215
H        7.57908963       0.23891420      11.37159238       0.03694828       0.10157777       0.04001300       0.32543355      -0.24173743       0.31501613
O       13.90719482       5.96237837      -0.75930866      -0.33157750       0.60540736       0.54426445      -1.04113457       0.34778394       0.38193209
H       14.65476341       5.55413923      -0.32260068       0.01587329       0.02220386      -0.04354289       0.69312937      -0.31593463      -0.03410455
H       14.08471823       5.85104494      -1.69329054      -0.14853223      -0.01621220       0.01650908       0.13583313      -0.00660038      -0.15709294
O        4.86908523       5.17472599       6.37601373      -0.77854137       0.25893135       0.36514851      -0.80793344       1.52092683      -1.15376594
H        5.55237862       4.53198508       6.56634527       0.04660381       0.14189216       0.10367555       0.76050008      -0.77046419       0.49972498
H        4.07521513       4.80162682       6.75915746      -0.03101376      -0.14207001      -0.09385235      -0.07328263      -0.65100891       0.52148638
O        2.73136146       5.38702501       2.88422012      -0.30165255       0.12191478       2.11681213      -0.53295846      -1.35834479       2.13681662
H        3.38823341       5.95392142       3.28842248       0.04139661       0.07409026      -0.05793130       0.17827467       0.37792575      -0.24591483
H        2.74946568       5.62226591       1.95655327      -0.43443025       0.13015101       0.15631646       0.42028782       0.74114705      -1.17133717
O       -0.04974352       2.45309501       8.36172828      -0.36728785      -0.42423034       0.58946310      -0.43945268      -0.13011689      -1.07620105
H       -0.33087330       2.52441549       9.27392962      -0.02575771      -0.02472181       0.03617506       0.19499021      -0.04801911       0.60846081
H        0.87289111       2.70768891       8.37434234      -0.03487230       0.01602764       0.03228047       0.19622352       0.15021441       0.42096097
O        4.68554225       1.40061099      10.12311444       0.08216534       0.39336970      -0.60867373      -1.11570912       0.89604220      -0.18717530
H        4.24904471       0.55312758      10.03666440      -0.09832619       0.04865176       0.25026997       0.11482796      -0.50426361       0.00166494
H        5.61918389       1.19612385      10.07086383      -0.02329049      -0.09344294      -0.08432604       0.81237570      -0.57821536       0.09026680
O        1.28210866       4.66568700      28.46583946       0.64624726       0.43891738       0.35646434       1.28394248      -0.96908826      -0.14831415
H        1.86984176       5.41559081      28.37393784       0.10244541      -0.01921136       0.03482176      -0.28641251       0.54577068      -0.02423846
H        0.40558378       5.04946226      28.49138416       0.06165660       0.08655910      -0.14398127      -0.76287884       0.55360977       0.17687654
O       -6.03002700       3.28102624      14.96040347      -0.43370324       0.03198029      -0.47178819      -1.46321634       0.53051481       0.88910568
H       -5.52549395       2.61950709      14.48704246       0.10548402       0.01795988       0.08954730       0.72028861      -0.33490865      -0.63539367
H       -5.37473675       3.90581193      15.27099866      -0.13375544       0.09129770       0.01522208       0.51301968       0.03272990      -0.14144579
O        7.92238462       4.51523053      14.38376345       0.84645064      -0.85028897       0.86881652       1.43784404       0.99310500       1.10309330
H        7.76800095       4.33206739      13.45702251       0.20374300       0.07386530       0.00449495      -0.57707163      -0.18402891      -0.61315110
H        7.08851860       4.31672143      14.80978391      -0.02546990      -0.08125213      -0.11239672      -0.74400758      -0.48806691      -0.32465692
O        6.91636527       3.62430743      25.45419132      -0.64031510       0.20990287      -0.65957464      -0.79039016       0.32759720       0.44908307
H        7.47371528       3.67033765      24.67735541      -0.25468071       0.00958080      -0.19555126       0.71922939      -0.08459299      -0.61365117
H        7.20506090       2.83376494      25.91018391       0.14251513       0.06137468      -0.07384922       0.59115384      -0.63479400       0.17633546
O       -1.54033079      14.71797354      11.30399714       0.23843002       1.24527214       1.05792551       0.02607363       0.52393357       0.94521295
H       -0.79128320      14.63548037      10.71378156      -0.12760395      -0.16492843      -0.08033690       0.13974800      -0.08498872      -0.38325203
H       -2.30000692      14.51810198      10.75702787      -0.13080787       0.01374493       0.29284096      -0.33742321      -0.29055695      -0.63087125
O        3.94589685       6.11640949      11.93054823      -0.84800162       0.14933885       0.94966395      -1.45900287       0.04486590      -0.55647403
H        4.09111297       5.20706417      11.66932955       0.06862906       0.01944683       0.09274237       0.61204219      -0.49595678       0.04466611
H        4.81695416       6.44362453      12.15509516      -0.10494903       0.11779593       0.10174989       0.73842017       0.27981508       0.43567295
O       -3.69113769      12.73961154      15.03316036      -0.15186370       0.69540922       0.54493026      -0.27895411      -1.23487697      -1.24699958
H       -3.33098031      13.62079052      15.13337071      -0.06052208       0.07584670      -0.06421475       0.37889364       0.51288488       0.57717965
H       -3.98487001      12.49904865      15.91184270       0.23044493       0.02713807       0.11000067      -0.20250607       0.33400038       0.44040029
O       -0.57398752      -1.91313728       8.13048876      -0.02197189       0.81074313       0.56574248       1.26396182       0.03434150       0.22999797
H       -1.44518896      -2.24256529       8.35120823       0.15724346      -0.45711478      -0.09672696      -0.73153358      -0.24522630      -0.02705856
H       -0.67267681      -1.54239064       7.25353996      -0.04287967      -0.16407940      -0.05064893      -0.32641500       0.19111839      -0.33731049
O       11.33216749       2.78932235       4.86004718       0.48154883      -0.83610550      -0.10354257      -1.90611494      -0.84016489       1.00196147
H       11.95265429       3.51805887       4.87312594       0.20556982      -0.20142089      -0.03203813       0.90598623       0.41435929      -0.76477093
H       11.78091085       2.10081998       4.36930721      -0.21683179      -0.10510257      -0.15899125       0.68692559      -0.21266900      -0.58811936
O        4.43085508      -6.76041844      20.49810013      -0.56660741       0.42467072       0.61798579      -0.27478897      -1.56943797       0.29681690
H        5.03926698      -6.15388225      20.07598565      -0.11551321       0.10151312       0.03131372       0.22150580       0.60369514      -0.44156588
H        3.99200927      -6.23393558      21.16627824      -0.05526778      -0.04012589       0.07878155      -0.12562177       0.49032600       0.18322148
O        3.74023769       9.11268501      14.18236712       1.19087163      -0.32401338      -0.35242904      -1.58451022      -0.36323906       0.98514620
H        4.56369288       9.23957472      14.65359146       0.06876436      -0.20275857       0.03784506       0.97846310       0.12704265      -0.02778426
H        3.88916319       9.51448438      13.32644054       0.14991180       0.14561741       0.06876511       0.60348577       0.23806282      -0.95463257
O        4.92835880       3.27316402      12.15428321       1.44850264      -0.04655250      -0.82656531      -0.18189889       1.27236976      -0.56648333
H        4.89047206       3.30128824      13.11031954      -0.11474058       0.03853650      -0.06146044       0.20318170      -0.33099225       0.73418369
H        4.66390291       2.38103858      11.92976790       0.14529488      -0.01441766      -0.07008774      -0.07572140      -0.55618910      -0.22793045
O        3.63963681       1.37174545      15.89775935       0.87497993       0.26750686       0.89372402       1.09553131      -0.64931460      -0.42599677
H        3.92068328       1.61612477      16.77953227       0.11437395       0.14382738       0.00223438      -0.17457455       0.13094802       0.53696173
H        2.71511883       1.61740219      15.86383149       0.06475001       0.05460682       0.06744224      -0.82228428       0.29950059      -0.09723058
O        6.26154586       9.36150899      15.33767546      -1.04990117       1.11619856      -0.26868413      -0.77449301       0.19525455      -1.22635676
H        6.35202085       8.98621546      16.21357550      -0.03726264       0.07181910      -0.01927161       0.46266049      -0.40703706       0.95740463
H        7.00919185       9.95299107      15.25161583      -0.08687956       0.09458656      -0.03028639       0.28448394       0.10574624       0.31630381
O        6.19442606      12.71400512      14.43555214       1.13214214      -0.48976268      -0.36457806       2.05321846      -0.41387964      -0.69536483
H        5.62854793      12.62639030      15.20258371       0.17574398      -0.24007391       0.03016409      -0.99897977       0.16019213       0.56004400
H        5.60744070      13.00017536      13.73570457      -0.04952657       0.02314772       0.10047878      -0.87061018       0.22399962      -0.21497153
O        5.46677551       3.60056753      14.88805275       0.49881046       0.68819252       0.24973650       0.32625559       0.03564227      -0.42322115
H        5.08168636       4.44245640      15.13128375      -0.04333066      -0.03480596       0.16792593      -0.41499968       0.16296955       0.28622392
H        5.18856264       3.00054001      15.58000392       0.15450438      -0.08738627      -0.04815590      -0.48286734      -0.16856640       0.31661208
O        3.60107129       3.59322418       8.32442237       0.07975655       0.29259353       0.00600060      -0.07377983       0.09966450      -1.08634730
H        4.21962387       3.23556174       8.96136988      -0.01981351      -0.19496222      -0.09532856       0.13974652      -0.34345410       0.58111522
H        2.92355460       4.01083128       8.85621865       0.12110261       0.06833995       0.10907322      -0.27858569      -0.10035830       0.48649165
O        8.42953172       1.05272901      16.08963112       0.36161734       0.19717366      -0.34772195      -0.87245668      -0.15449338       0.72362808
H        8.57830965       1.72306731      15.42274018       0.14386660       0.09716053       0.09028069       0.39691731       0.19344010      -0.78007166
H        9.29334928       0.66929357      16.24138199      -0.03132879      -0.11011543      -0.02350572       0.44319809       0.03890808      -0.26105090
O       10.91688839       5.56979062      17.65424274      -0.82436128       0.03004196      -1.11461020      -0.26079828      -0.26868075      -0.97394318
H       10.37114229       5.61427404      18.43936328      -0.05689555      -0.18080911      -0.06331934       0.06587483      -0.05490219       0.79171204
H       11.80243246       5.75530611      17.96669682      -0.09140109       0.17553932      -0.06148059       0.54009551       0.17360661       0.27783433
O        9.70571389       0.67544689       6.08526423      -0.52521123      -0.61066104       0.14668766       0.26520023      -0.24472654       0.53732046
H        8.88395292       0.60427658       5.59959403       0.00269177      -0.05681651      -0.04861409      -0.41303330       0.07689469      -0.48873679
H       10.29845951       1.13219597       5.48838505       0.00432627      -0.04170108       0.04393000       0.06680954       0.27495231      -0.36221770
O       13.76282596       6.64726060      10.30140635       0.58613155      -0.07207416      -0.89912978       0.36297638       0.30643597      -1.10059035
H       12.99349689       7.00020533      10.74839029       0.08124045       0.17320908      -0.12073501      -0.35674106       0.21323045       0.52183851
H       14.18689396       6.09207541      10.95575150      -0.15333935      -0.11334875      -0.02565884       0.08098998      -0.53892067       0.33855166
O        7.60763610       6.43023055      20.30056284       1.21012046       1.05485877      -0.12322199       1.28226827       0.57232034      -0.76522219
H        7.11559291       6.35781283      21.11841430       0.17468035      -0.46828691       0.00410981      -0.67760956      -0.23338852       0.90608062
H        7.12634418       5.88125686      19.68151695       0.20793914       0.17965367      -0.21053488      -0.78400418      -0.32900421      -0.18946290
O       13.08599369       3.00146406       8.79534214       0.28696440      -0.62771716      -0.55193470      -0.20951959      -0.87135090       0.18561328
H       13.77712910       3.66189171       8.84432187       0.02874256      -0.05847257       0.06993305       0.53307573       0.59243901      -0.25603825
H       12.34398669       3.45942854       8.40046749      -0.01223576       0.06653470       0.14522440      -0.33748896       0.43402938      -0.25480648
O        8.76104571       7.15359864      13.03493346      -0.47986959       0.56496903      -0.38781074      -0.35145033      -0.06290987      -1.04579075
H        9.31365690       7.93477993      13.05960150      -0.01088319       0.02046924       0.02108603       0.20993475       0.25186827       0.33279412
H        8.88485879       6.74489917      13.89159378      -0.08099144       0.01074583      -0.02895287       0.16263853      -0.13178188       0.73023865
O        1.00225238      10.19220214      16.58769837      -0.18773669      -1.33439341       0.18753076       1.39001575       0.02945171      -0.50083049
H        0.23635726       9.96633387      17.11554307      -0.11736594      -0.06916336      -0.13493912      -0.96853307      -0.07748883       0.39205647
H        0.74078312       9.99428429      15.68842412       0.09427100       0.08863392      -0.05704397      -0.43342000      -0.04979079      -0.26958355
O       -3.19865045      17.06684548      -0.73434427      -0.78751242       0.10656098      -1.59533584      -0.18829402      -1.25772874       0.06123600
H       -3.58833914      17.88561006      -0.42775150      -0.21839174      -0.08392430      -0.07297953      -0.08595463       0.78073482       0.09818402
H       -2.57515898      17.33567718      -1.40904401      -0.20660290       0.14644307      -0.18990937       0.33316376       0.55516127      -0.23786171
O        2.49125446       8.64944161       2.96587686       0.26150920      -0.03646579      -1.00339203      -1.32161089      -0.63342254       0.07114136
H        2.62948158       9.30682979       3.64776094      -0.04319963       0.02587106      -0.07827720       0.41225545       0.57592983       0.29720625
H        3.30724945       8.64745302       2.46549693      -0.02339327       0.13679486      -0.12878746       0.91583114       0.15687893      -0.19795917
O        4.15074254      13.60759718      12.68822355      -0.21747655      -0.42856789      -0.22420908      -0.07762113      -0.98167407       0.31737667
H        3.71599306      14.21248409      13.28933632      -0.16063188      -0.13997929      -0.00670471      -0.03990044       0.61144719       0.26307583
H        4.42521015      14.15569232      11.95304256      -0.06170869       0.06569163       0.03705634       0.14890150       0.29535265      -0.40272991
O       -1.01871762       9.26279464       7.06703639      -0.90009269       0.24497908      -0.12974431      -0.91228792      -0.63961726       0.72625470
H       -0.43919510       9.94844669       7.39910079      -0.01942211      -0.08195644       0.12784615       0.45637542       0.48861904      -0.04148186
H       -1.04923245       9.41127980       6.12191585       0.20220241       0.01121333      -0.01719701       0.25316809       0.07354439      -0.44667238
O        2.08633603      10.82513092       4.87856657      -0.61521715       0.85743949      -0.05727917       0.96879217       0.06482571      -0.55517318
H        2.14834024      10.75921616       5.83147924      -0.27960609       0.10677376       0.01571144      -0.35489229      -0.15965078       0.59969226
H        1.14802850      10.89705049       4.70352830      -0.00693985      -0.14812769      -0.25724849      -0.64206701      -0.18051405       0.13171884
O        7.75885695      15.49010952      17.00115937      -0.21783270      -0.36882670       0.17976890      -1.17746388       0.84390218      -0.09602023
H        8.27442370      15.45284239      17.80678578       0.17053418       0.23508017      -0.09464207       0.82673288      -0.50412519       0.52773616
H        7.96779364      14.67516108      16.54461108       0.00833160      -0.09382155       0.14741389       0.62237359      -0.49209286      -0.36520516
O        3.08770544      21.19751675       3.88027079      -0.00368474      -0.30328005      -0.39492770      -0.78616006      -0.53550012       1.33003066
H        3.28187287      22.10432391       3.64313872       0.02634877      -0.05417713      -0.13722418       0.05478000       0.52259663      -0.51836800
H        3.60923806      20.67352675       3.27226582      -0.02839263      -0.10982607       0.02914526       0.69806024      -0.11576837      -0.99388533
O       -0.39424259      11.97110483       8.00021496      -0.18794459       0.78507620       0.93523399      -1.36790564      -0.27461783      -0.69039424
H       -0.32308711      11.71986192       8.92110895       0.23525008       0.06128125       0.04305556       0.51657014      -0.22355835       0.63615288
H        0.38071285      12.50891242       7.83761456      -0.09313295       0.10748516      -0.13660273       0.56281487       0.18899856       0.00974441
O       -6.27863087      14.53483769       7.02507802       0.19906716      -0.85264883      -0.41904569       0.01116731      -1.17954976      -0.37840828
H       -6.93236066      14.53348584       7.72426853       0.01109901       0.01921171      -0.02760970      -0.46796471       0.50478766       0.42440736
H       -5.97246358      15.44084570       6.98454502       0.21509972      -0.11790611       0.06891891       0.30956292       0.80311950       0.16468525
O       -1.04897479       9.95851292      -0.35555505       1.06027759      -0.27151825       0.64303407       0.33850570       0.82891046      -0.51383290
H       -1.94594763       9.69404675      -0.55983234      -0.00609530       0.14900897       0.14554058      -0.50064709      -0.43866567       0.11232729