17496
Lattice="55.91092606379093 0.0 0.0 0.0 55.91092606379093 0.0 0.0 0.0 55.91092606379093" Properties=species:S:1:pos:R:3:momenta:R:3:forces:R:3 energy=-2234.0205793042073 pbc="T T T"
O       -1.23730546       6.53468702      -0.93121536      -0.33052701      -0.82128204      -1.16459611       0.67186679       0.08571989      -0.95376276
H       -1.35238599       7.05595826      -0.13669375       0.10426086      -0.09359626      -0.02779795      -0.01220471       0.09490890       0.65844191
H       -1.71862832       5.72540537      -0.75910096       0.13000485      -0.12204491       0.01786972      -0.36239385      -0.22619522       0.53483223
O        3.02847920       1.11760267       2.44026041       0.85263802      -0.09764443       0.61137527       0.54733006       0.45430879       1.44089568
H        3.00045036       0.21128363       2.13361404      -0.02956963      -0.06958040       0.23360005      -0.14436682      -0.64598194      -0.35264501
H        2.44331482       1.58961653       1.84779319      -0.02380443      -0.10878071       0.03332398      -0.25040560       0.20920390      -0.57115911
O        3.29249549       4.53999386      13.04208508      -0.98913493       0.55221493       0.30929071       0.34717536       0.57714773      -0.86240634
H        2.75092058       3.78169961      13.26098750       0.21199180      -0.14487729       0.07575859      -0.25785898      -0.25107121       0.43100067
H        3.45583748       4.96877772      13.88214201      -0.04459512       0.04017737       0.01329124       0.07368130      -0.03985526       0.53412802
O       -1.45003097       2.79045532       9.35582649      -0.79829777      -0.08956171      -0.29990808      -0.43162003      -1.40324809       0.94124908
H       -0.66984011       3.05299594       8.86735286       0.00370823      -0.13622054      -0.00282174       0.55613251       0.34524722      -0.54227833
H       -1.92675840       3.60722245       9.50365828       0.26326616       0.12244571       0.28459277      -0.40714181       0.74729855      -0.18154844
O        3.61181060       1.61511519       5.19931163      -0.45241745       0.30418690      -0.30502428      -1.46543042      -1.10551309       0.98886303
H        4.34768576       2.22711538       5.18606807      -0.10859460       0.11497949      -0.04172825       1.06207941       0.41984236      -0.34478808
H        3.49823151       1.35653992       4.28472404       0.07973201      -0.11844967       0.00624772      -0.05992529       0.21352301      -0.94337194
O        5.64892930       3.15935267      14.69142879       0.01992393       0.15099014       0.75901071      -0.15539245      -0.35670505       0.34667989
H        6.45104457       3.12637545      14.17012711      -0.11147730      -0.14452015      -0.11589441       0.42393637       0.10429780      -0.37737962
H        5.51073052       4.09131398      14.86048811       0.04140561       0.05899101      -0.19211224      -0.01264955       0.52729444       0.00270901
O       -1.68789662      11.73026513       3.16212738       0.51972510       0.04326153       0.29581714       0.17079180       1.35946693       0.70321510
H       -1.65030722      11.97848465       2.23843590       0.03633772       0.09668459       0.04403303       0.09947492      -0.35603379      -0.47728077
H       -1.70096274      10.77319689       3.15310011      -0.10046562       0.00550943      -0.08368833      -0.15423912      -0.92883573      -0.22694067
O        0.48679776       3.33075103       4.43420363       0.59568591       0.69541897       0.07243987       1.15950077       1.42548640      -0.67920884
H       -0.36079636       3.11680526       4.04427638       0.11010373      -0.07598516      -0.08745841      -0.79243963      -0.36065965      -0.04651388
H        0.66780676       2.60306482       5.02913250       0.14811686      -0.00691332      -0.09112943      -0.21468339      -0.84715015       0.46333299
O       -2.82048332       7.58695575       6.35068516      -1.35387698       0.90321773      -0.61185340      -0.86423106       0.34834381       0.38101130
H       -3.08285438       7.37696111       5.45441760       0.11656752       0.10551194      -0.10903149      -0.00122174      -0.14976349      -0.43683726
H       -1.86357898       7.57650409       6.32931490      -0.08236287      -0.27389427       0.25473552       0.35236029      -0.23757027      -0.01773802
O       -0.34630110      -0.26707556       0.54112318      -0.56929323       0.36333930      -0.88064981      -0.39697906      -0.67876457       0.63413844
H       -0.80342996       0.51967168       0.24398044      -0.10977107       0.01600966       0.03998770      -0.06469081       0.56523166      -0.17904363
H        0.48248921      -0.25834046       0.06230988      -0.05052638       0.14164307      -0.07869106       0.38641017       0.28249547      -0.54200732
O       10.44970520       6.45215549      -2.18382275       0.05023262      -1.03901566      -0.13494588       1.65823036      -0.30546192       0.23865742
H        9.57159888       6.43603934      -1.80316357       0.01132583      -0.31441237      -0.00021627      -1.01954352       0.08939902       0.20246746
H       10.30624190       6.64671622      -3.10999564      -0.05660334      -0.04551035       0.00494717      -0.50473430      -0.03724523      -0.74141909
O        4.43891043      -2.23902460       8.93784396      -0.64053464      -0.02636582       0.19328377       0.23831035      -1.46292836       0.35072284
H        4.20989513      -1.65786017       9.66312441      -0.01615913       0.05387020      -0.02467893       0.09143952       0.76601408       0.12220092
H        4.93761702      -1.68657367       8.33591246      -0.06353231      -0.04682533      -0.04847556       0.13848454       0.69171679      -0.19874492
O        2.58115195       7.59594108       2.20753335      -0.17491690       0.16534671       0.07483502       0.17184607       1.12718638      -0.66125360
H        2.61522846       7.38861965       3.14139012       0.02045959       0.09664702       0.02270963       0.07130764      -0.02284056       0.73885303
H        2.75395083       6.76223164       1.77015368       0.25008990       0.02597164       0.07822527      -0.20177437      -0.80229310      -0.04565572
O        5.98030230       4.61183935       0.35276239       0.86376890       0.24060561      -0.10099784       1.09181110      -0.03843543       0.11407825
H        5.53681614       5.45598830       0.26930927      -0.05769391      -0.02949728       0.13772602      -0.57107196       0.20821540      -0.07101161
H        5.36239062       3.97891767      -0.01306154       0.08481990      -0.02088743       0.00465487      -0.66306002      -0.21826073      -0.22277333
O        3.75990327       2.83804835       7.88373563      -0.50134635      -0.07461156      -0.60123097      -0.47088520       1.13362128       0.64162112
H        3.85711706       1.94078837       8.20264918       0.03282239      -0.00486288      -0.05796958       0.36877693      -0.52391806       0.02279845
H        4.15232706       2.82630034       7.01075373       0.02469168       0.05780756      -0.01342275       0.20263579      -0.39418125      -0.36414782
O        3.30650933       8.03450576       4.88258415       1.78226902      -0.69736095       0.68580257       0.13111953      -0.40539191      -0.72559788
H        3.68473968       8.90760177       4.98687702       0.12503729      -0.04779649       0.02929289       0.05872365       0.33657364       0.40378421
H        3.02652517       7.78741241       5.76393856       0.01545761       0.01669813       0.02944636       0.15628879       0.02504228       0.18076052
O        7.34715655       8.99456050       2.94704991       0.50505125      -0.30757461       0.37641237       0.11654662       1.43360621       0.84673994
H        7.03258898       8.11567448       3.15880085       0.25461832      -0.08689888       0.07444611      -0.33930878      -0.76932073      -0.35128157
H        8.00632052       8.85614237       2.26692116       0.21041268       0.09144295       0.17424877       0.34451183      -0.49087047      -0.76041132
O        4.19535649       5.67014072       6.37210127      -0.76521121      -0.15769334      -0.21443625       0.09219944      -0.41833989      -0.91185367
H        3.48327966       5.54298680       6.99900661      -0.02530097       0.00630013       0.01580562      -0.15083037       0.02612174       0.44091727
H        4.89190819       6.08495930       6.88099528      -0.17539219       0.36191928      -0.14254336       0.03619254       0.13723433       0.33001591
O        5.35128189       1.29980709       0.69622690       0.10861274      -0.79411942      -0.18701710      -0.42436609      -0.47528952      -0.72491652
H        5.24727369       1.50139559       1.62616034       0.15823700       0.16385374      -0.04121591       0.01935397       0.10341743       0.40291834
H        6.29670628       1.32703188       0.54904210      -0.00604928      -0.25778976      -0.13302389       0.38876074       0.26005962       0.18320802
O        9.82899848      -1.45432497       4.89478723      -0.09801330      -0.15585440      -0.17011265      -0.51357353      -0.97878170       0.28991420
H        9.33431240      -0.96951206       4.23412546       0.14221458       0.05100472      -0.07719359      -0.01526047       0.52400384      -0.15399652
H       10.38869840      -0.79596525       5.30652784      -0.05797609      -0.05837379       0.13733459       0.13175788       0.59704828      -0.14590119
O       10.35882441       2.84364567       8.41619944       0.61757344       0.05291946       0.51073397      -1.53275251       0.11873306      -1.31823472
H       10.39771074       2.58496949       9.33696343       0.03515183      -0.04588776       0.01850872       0.53862029       0.04511786       0.92030962
H       11.26852901       3.02338807       8.17879250       0.02299450       0.15339121       0.08480359       0.97984616       0.15301895       0.33428990
O       10.29670749       1.32658278      -3.21329660       0.47448465      -0.38739252      -1.38785994      -0.77093865      -1.32158694      -1.02636515
H       11.24833474       1.33920534      -3.31565918       0.04044932       0.09754651       0.02572300       0.72568665       0.33679632       0.19313718
H       10.12208164       1.95734028      -2.51481064      -0.13979052       0.00425306      -0.15574421       0.01676986       0.54153745       0.86452282
O        8.96189158       6.26594499       2.54953079       0.68311676      -0.23849824       1.03061814      -0.47937977      -0.16735796      -0.46200925
H        9.62535529       5.57732146       2.50657265       0.14921843       0.10936346      -0.28916918       0.09912795       0.14015137       0.16303616
H        9.20746735       6.78850934       3.31297749       0.19648132      -0.12930952       0.09380027       0.25387092       0.20312828       0.54481479
O       11.03354623       3.43251961      10.94636404      -0.47422335       0.19562951       1.24189941      -0.47723496      -2.27199887      -0.26360377
H       11.49902466       4.26743226      10.89653911       0.11045116      -0.08507069      -0.24282139       0.30363929       0.68854770       0.32439275
H       10.82227595       3.33054958      11.87437203       0.55639622       0.07431905       0.21852761      -0.15118222       0.42957079       0.71983404
O       11.22582956       5.75181338       0.50826717      -0.74829864      -0.19127124      -0.43914408      -0.06540174       0.62383567       1.10911495
H       10.66887988       5.13243364       0.03666604       0.03719282      -0.06460241      -0.05825078      -0.18703297      -0.12924719      -0.58964013
H       11.82627712       6.08898251      -0.15657232      -0.05251792       0.05612819       0.00205691       0.34592777      -0.02251571      -0.77586853
O        5.51476523       6.88945191       3.09099427      -0.12177917       0.35670888       0.70056195       0.71269002       0.29736736       0.16059575
H        5.15457583       6.01422910       2.94788426      -0.00426388       0.02672464       0.00956355      -0.30256569      -0.40789600       0.10211396
H        4.74667912       7.45036735       3.19892690      -0.01084582       0.02558439       0.00539215      -0.38180370       0.00111548       0.13584159
O        2.00467802       8.58494806       8.51794299      -0.83623896       0.42192919       0.77872536       0.10996917       1.98128823       0.29748519
H        1.90421962       7.98374252       7.77991057       0.26709276       0.02469792       0.00707131      -0.28562090      -0.85700104      -0.13905077
H        2.05601216       8.01580022       9.28584102       0.36127526      -0.00469886      -0.00179617      -0.18597260      -0.54012169       0.23576777
O       -1.14766543       6.58050211       8.34935658      -0.96323269      -0.30997995      -0.84093945       0.74294174      -0.11602224      -0.65977199
H       -1.39842776       7.21652135       9.01930405       0.06701690      -0.04075392       0.01496654      -0.03120199       0.19256072       0.53461440
H       -1.72105117       5.82989662       8.50444372      -0.02238340      -0.02946057       0.04057154      -0.39022821      -0.12647300       0.39760475
O        3.14736139       1.08697866      11.73967129       1.31363883      -0.12522577       0.51647929       0.68893070       0.40665783       1.33024847
H        2.94430371       0.21981064      11.38893063       0.07279541      -0.07056383       0.19326659      -0.20555083      -0.59521851      -0.34661168
H        2.51861940       1.67076311      11.31527636       0.05162109      -0.08820070      -0.03179415      -0.29242445       0.27940515      -0.62887408
O        3.58578004       4.55255569      22.54762266      -0.04799425       0.26626274       0.70529088       0.32777255      -0.08811998      -0.97100641
H        3.08234488       3.80972675      22.88077437       0.21782249      -0.08164394       0.15871712      -0.28609040      -0.12410129       0.27481651
H        3.39092327       5.26625740      23.15498791       0.00123636      -0.02338514       0.09299488       0.02811791       0.18827766       0.54215357
O       -1.47404288       2.64778500      18.75253689      -0.74742143      -0.24379172      -0.01905060      -0.40791188      -1.51665567       0.72009473
H       -0.73832395       2.82315637      18.16585607      -0.04960430      -0.19831489      -0.05904182       0.60519629       0.49664403      -0.55875913
H       -1.80835658       3.51435582      18.98388339       0.27647035       0.07202087       0.13906230      -0.27436743       0.82206957      -0.24919886
O        3.54362695       1.66649697      14.54916676      -1.05283745       0.02233519      -0.22669244      -1.60505479      -0.90722979       1.20098963
H        4.29191610       2.26236676      14.58430053      -0.19278678       0.16949611      -0.17182433       1.12398268       0.53460731      -0.41984628
H        3.52540078       1.35727355      13.64347336      -0.02030784      -0.21682440       0.05930029       0.21905892       0.17804922      -1.09028134
O        5.68158749       3.05256370      23.91943757      -0.29101269       0.03726530       0.49581892      -0.04093548      -0.55533211       0.53501639
H        6.51961263       3.13248057      23.46385113      -0.02737511      -0.20640160      -0.02200819       0.35895387       0.12995671      -0.41435202
H        5.19922799       3.84235843      23.67492697      -0.00324002      -0.08479359      -0.28001603      -0.05598835       0.70213009      -0.31663358
O       -1.73626419      11.71888566      12.35380788       0.31278344       0.16988159      -0.03183458       0.02038334       1.32983977       0.78287663
H       -1.56328443      12.01370235      11.45972010       0.06440908       0.05604568       0.02159415       0.13877892      -0.19182357      -0.60624103
H       -1.79614107      10.76604428      12.28496087      -0.16097851       0.02801010      -0.08438924      -0.13286615      -0.95507409      -0.17071300
O        0.66206521       3.35544937      13.69086959       0.47900882       1.02024125      -0.44572550       1.12554987       1.11015995      -0.64864648
H       -0.22175179       3.35902488      13.32332831      -0.01581528       0.03540994       0.08223901      -0.78984397      -0.31982620      -0.01983325
H        0.67103686       2.60661096      14.28701753       0.16084297       0.00362433      -0.10623919      -0.34481859      -0.74217360       0.40565092
O       -2.91842950       7.52367294      15.72614650      -0.89488086       0.44606510      -0.20425757      -0.81061598       0.67377273       0.36169414
H       -3.10420023       7.10687170      14.88472045       0.05108235       0.10978953      -0.07705796      -0.01963565      -0.25116287      -0.44309245
H       -1.97018191       7.44370564      15.82941116      -0.10929168      -0.26228206       0.24812088       0.33016173      -0.28352308       0.06879721
O       -0.45830610      -0.33340186      10.00609113      -0.93469738       0.53978727      -0.56417695      -0.26634229      -0.62810882       0.40872573
H       -1.03177776       0.30641810       9.58419954      -0.04521531       0.06327067      -0.00975544       0.01425266       0.39868589      -0.23301012
H        0.39736441      -0.19275420       9.60077882      -0.02899649       0.11184210       0.05457217       0.38425265       0.18379116      -0.42692561
O       10.43180556       6.61043054       7.03792676      -0.25955064      -0.43418967      -0.79341164       1.44576001      -0.01788086       0.52184107
H        9.52814394       6.52262990       7.34110753      -0.01040629      -0.17575607      -0.07524063      -0.90053930       0.01924082       0.10312307
H       10.35339456       6.82042783       6.10734377      -0.02037801      -0.25382834      -0.10075518      -0.50974799      -0.15327455      -0.77537849
O        4.40014651      -2.13206566      18.32730033      -1.52071861       0.08331353       0.34431853       0.31455476      -1.33973133      -0.01461162
H        4.17357189      -1.68392787      19.14220419       0.07102751       0.00187011       0.06993920      -0.00060750       0.61528061       0.27711459
H        4.77396173      -1.44725592      17.77274677       0.03043717      -0.04565900       0.04392975       0.16779559       0.61350290      -0.09492128
O        2.67846889       7.72319080      11.54639480       0.35978035       0.30202272       0.48228905       0.11106122       0.94300914      -0.82232506
H        2.65557128       7.55560340      12.48853174      -0.09469918       0.01747532       0.02725734       0.03789123      -0.09936488       0.69081330
H        2.82562926       6.86300254      11.15313684       0.31076058       0.05504925       0.05940358      -0.15017190      -0.77109218      -0.01028589
O        5.91781376       4.63994082       9.60022717       0.71588138       0.27192334       0.40198874       1.12581284      -0.01859282       0.22101946
H        5.44002300       5.44604492       9.40492221      -0.00239923      -0.01332191       0.01583951      -0.57652786       0.26450947      -0.08791121
H        5.27295795       3.94317276       9.47813251       0.11883948      -0.03172592      -0.08529528      -0.55839532      -0.22306390      -0.24422166
O        3.69624569       3.02597772      17.42221910      -0.62193728       0.39512484       0.03088469      -0.54674799       1.11609684       0.15713912
H        3.77103101       2.18813678      17.87901399       0.07420935       0.06174650       0.05097439       0.41668990      -0.57591242       0.16895046
H        4.03407514       2.85138920      16.54379895      -0.01910656       0.01825557       0.01098707       0.21190590      -0.44524902      -0.35136949
O        3.38861600       8.08279153      14.22776761       2.03812740      -0.73360822       0.39483769       0.06112908      -0.51069604      -0.65380161
H        3.49656161       9.02215793      14.37666472       0.18066607      -0.03993065      -0.05268736       0.07013869       0.46231306       0.42754282
H        2.99067681       7.75607234      15.03469438       0.02845326       0.05738315       0.01753054       0.06760790       0.03168933       0.13610701
O        7.47606890       9.01075381      12.24778414       1.18265787      -0.06957067       0.53473650       0.16033876       1.41684210       0.48608084
H        7.03854757       8.25213385      12.63418118       0.14605964      -0.02315791       0.07784386      -0.36587847      -0.80111646      -0.20654273
H        8.10839439       8.63643766      11.63436443       0.14664791       0.01809820       0.09433112       0.21621259      -0.62830988      -0.53975615
O        4.23464373       5.62128359      15.68875437      -0.50873370      -0.39470552      -0.46313339       0.14333061      -0.75596333      -1.12127612
H        3.54238378       5.45433555      16.32839206       0.07889888      -0.17545121       0.05159687      -0.15741820       0.06597354       0.48963806
H        4.76937441       6.30778181      16.08752139      -0.38540574       0.39769421      -0.28280913       0.02703177       0.30049865       0.27338448
O        5.41058245       1.26936939       9.82672716      -0.04740061      -0.83506240      -0.71950712      -0.63702806      -0.46822620      -0.76274804
H        5.27955957       1.42377722      10.76226073       0.14130743       0.07567678      -0.04629704      -0.00682532       0.01184532       0.45967828
H        6.36133648       1.25267917       9.71709119      -0.01983716      -0.10704991      -0.18317275       0.35163528       0.33932538       0.19172449
O        9.68790597      -1.47699422      14.16710542      -0.76202390      -0.18537876      -0.40788471      -0.14123265      -1.11694956       0.28642755
H        9.05306819      -0.89916252      13.74363953       0.01078708       0.10053352       0.03927351      -0.11943333       0.61536080      -0.05022916
H       10.26745760      -0.88575188      14.64750549      -0.07885285      -0.13493436       0.16320290      -0.05071820       0.67745138      -0.13841124
O       10.47082320       2.69291372      17.69181690       0.48825586      -0.69326080       0.34297665      -1.58441908       0.20495405      -1.20998142
H       10.33766835       2.45637350      18.60972232      -0.09154604      -0.06086695      -0.00056307       0.49932788       0.03636868       0.76997506
H       11.40248466       2.90398746      17.63109923       0.00809499       0.10270315       0.18266952       0.95474338       0.17506008       0.34323401
O       10.31681767       1.42819376       6.13205486      -0.30330304       0.26138036      -1.56197258      -0.56813723      -0.75942490      -1.20145626
H       11.25493046       1.24398253       6.08470042       0.01873394       0.22947725      -0.17733614       0.57467379       0.14603319       0.12218844
H       10.20501641       1.89262876       6.96153208      -0.04086902       0.07326522      -0.13314481      -0.02897513       0.40690371       0.90595164
O        9.11596823       6.32029999      11.82695363       1.25184038       0.03666776       0.76457382      -0.64574614      -0.28455150      -0.41045316
H        9.54871539       6.65675273      12.61165822       0.12015974       0.31229140      -0.10750738       0.15414452       0.18895537       0.52437407
H        9.82176699       6.21924479      11.18830837       0.03495975      -0.18685402       0.02957494       0.35024585       0.07756569      -0.29784357
O       11.12662912       3.40155576      20.33137525       0.07647029      -0.12646582       1.14175527      -0.61647383      -2.29787295      -0.08374441
H       11.92079273       3.79614282      20.69170432       0.11805035      -0.19069998       0.02247658       0.26744712       0.53080195       0.52209775
H       10.42328219       3.99548918      20.59363093       0.15001128       0.12128643       0.16860738       0.13160070       0.47328879       0.20636309
O       11.13451996       5.71891316       9.84757236      -1.17176105      -0.47557399      -0.14371074       0.10462222       1.08060569       1.01857434
H       10.65321891       4.96407963       9.50873984       0.13683878      -0.15078329      -0.03913938      -0.25217623      -0.46000456      -0.66095489
H       11.77737293       5.91878651       9.16711475      -0.14820195       0.19401151      -0.01353154       0.23067096      -0.05618447      -0.74873990
O        5.53523574       6.94336084      12.52718310      -0.79235723       0.27834802       1.09367680       0.73670950       0.04626933       0.16091821
H        5.16514988       6.11265588      12.22852347      -0.00475281       0.08932451      -0.18673814      -0.18993906      -0.20223410      -0.01732655
H        4.77346094       7.48774957      12.72610993      -0.08007827      -0.02221933       0.06222178      -0.44859459       0.10514664       0.18537796
O        2.07742497       8.60742673      17.80890125      -0.95704240       0.44706140       0.57354024      -0.09262817       1.67437904       0.28724615
H        2.03197559       7.97133826      17.09506819       0.35532160       0.01386406       0.02241790      -0.29122580      -0.78429665      -0.14140181
H        2.10705233       8.07464952      18.60357257       0.33260765       0.02963096       0.02246854      -0.12042890      -0.51821262       0.34261127
O       -1.26979533       6.60910541      17.73160203      -1.28693780       0.00025241      -0.92257106       0.76500247       0.07209656      -0.92740369
H       -1.30324132       7.18233266      18.49745039       0.15038706      -0.08289203       0.01403855      -0.04093426       0.10582402       0.70781419
H       -1.84841974       5.87932503      17.95261389       0.09644107      -0.09428428       0.09526362      -0.37563618      -0.28127867       0.55192630
O        3.06685031       1.03922848      21.06616098       1.14685534      -0.30915203       0.88772707       0.65501937       0.57448608       1.30394138
H        2.96032104       0.13864794      20.75983104       0.05140902      -0.07451761       0.22499193      -0.22336416      -0.74356037      -0.32833128
H        2.45386649       1.54749216      20.53498238       0.02503553      -0.11720795       0.01690942      -0.29051032       0.26619782      -0.52320958
O        3.30527200       4.55664942      31.71933881      -0.63341985       0.54031930       0.78240888       0.26894840       0.32506158      -0.65981865
H        2.68070069       3.86670667      31.94321718       0.17829566      -0.15734845       0.06821176      -0.24546190      -0.16929353       0.22077115
H        3.54441376       4.94603675      32.56042178      -0.04896529       0.03379108       0.05198636       0.13180498       0.07196128       0.47892855
O       -1.35288943       2.65696289      28.12032327      -0.73105416      -0.10818153       0.14160879      -0.55026897      -1.32276434       1.18059027
H       -0.57480063       2.87286695      27.60632414      -0.01014037      -0.25324695      -0.04021701       0.64090172       0.47742872      -0.71273960
H       -1.87926418       3.45631360      28.10618418       0.30915178       0.23096402       0.22784545      -0.40250677       0.76827525      -0.28230424
O        3.51387970       1.63752181      23.90816190      -0.87759227       0.45375429       0.03608998      -1.51516518      -0.73465425       1.17536624
H        4.32490242       2.14437438      23.86848225      -0.05589828       0.01572356      -0.17445222       1.14999519       0.40080582      -0.37700141
H        3.43739144       1.23882940      23.04131373      -0.13223563      -0.15365702       0.09288383       0.05238273       0.20048087      -1.00465653
O        5.61109327       3.15012646      33.34443755       0.14714408       0.80987722       0.83878960      -0.15199968      -0.38596231       0.28430687
H        6.37126896       3.12474580      32.76330023      -0.16023253      -0.11007422      -0.16184125       0.44849909       0.16392911      -0.40331108
H        5.61452154       4.03661378      33.70549200       0.05816037       0.18194050      -0.26904938      -0.03271302       0.45913506      -0.01773539
O       -1.76665680      11.73883045      21.79482725       0.28401862       0.27550513       0.44937662       0.10985995       1.26504887       0.74414052
H       -1.59527767      11.95245589      20.87764395       0.06673083       0.05629330       0.04650641       0.14068238      -0.26192893      -0.55329236
H       -1.83161808      10.78397000      21.81074584      -0.18955660       0.03014653      -0.05114982      -0.04912790      -0.94063214      -0.23130077
O        0.54877554       3.44564710      23.17876640       0.10747039       0.95928738       0.33295589       1.13144556       1.80680803      -0.63167314
H       -0.26202659       3.23031968      22.71782619       0.02953096       0.02845985      -0.00411860      -0.77239074      -0.56016510      -0.16591510
H        0.67918560       2.71848969      23.78742654       0.09209211      -0.00458057      -0.07498095      -0.36184944      -0.91515282       0.38307673
O       -2.90965227       7.44181341      24.95051658      -1.30763737       0.25990976      -0.38297786      -0.99871037       0.33901373       0.36214281
H       -2.83572328       7.29373695      24.00773361       0.13523744       0.24280155      -0.04262721       0.01804056      -0.18467932      -0.35581941
H       -2.00958642       7.39245356      25.27250557      -0.18917503      -0.36154974       0.21644606       0.48162085      -0.24793951       0.17000938
O       -0.27894013      -0.26450281      19.29452754      -0.44254876       0.90712109       0.03058273      -0.24380979      -0.39256380       0.77578795
H       -0.89549821       0.37428990      18.93671218      -0.15887946      -0.07237919      -0.00359656      -0.04220819       0.35919239      -0.23895282